<?xml version="1.0" encoding="UTF-8"?>

<!-- generated on 2024-01-30 04:11:06 by Eclipse SUMO sumo Version 1.19.0
<configuration xmlns:xsi="http://www.w3.org/2001/XMLSchema-instance" xsi:noNamespaceSchemaLocation="http://sumo.dlr.de/xsd/sumoConfiguration.xsd">

    <input>
        <net-file value="lust.net.xml"/>
        <route-files value="buslines.rou.xml,due.local.actuated.0.rou.xml,due.local.actuated.1.rou.xml,due.local.actuated.2.rou.xml"/>
        <additional-files value="vtypes.add.xml,lust.add.xml,lust.poly.xml"/>
    </input>

    <output>
        <summary-output value="due.actuated.summary.xml"/>
        <summary-output.period value="600"/>
        <tripinfo-output value="due.actuated.tripinfo.xml"/>
    </output>

    <time>
        <step-length value="1"/>
    </time>

    <processing>
        <ignore-junction-blocker value="20"/>
        <scale value="1"/>
        <time-to-teleport value="600"/>
        <max-depart-delay value="600"/>
    </processing>

    <routing>
        <routing-algorithm value="dijkstra"/>
    </routing>

    <report>
        <verbose value="true"/>
        <log value="due.actuated.log"/>
        <message-log value="results/sumo-0.log"/>
        <no-step-log value="true"/>
    </report>

    <traci_server>
        <remote-port value="59239"/>
    </traci_server>

    <random_number>
        <seed value="23423"/>
    </random_number>

    <gui_only>
        <gui-settings-file value="gui-settings.cfg.xml"/>
        <quit-on-end value="true"/>
        <start value="true"/>
    </gui_only>

</configuration>
-->

<tripinfos xmlns:xsi="http://www.w3.org/2001/XMLSchema-instance" xsi:noNamespaceSchemaLocation="http://sumo.dlr.de/xsd/tripinfo_file.xsd">
    <tripinfo id="randUni1024:1" depart="240.00" departLane="-30892#20_0" departPos="23.29" departSpeed="0.00" departDelay="0.49" arrival="366.00" arrivalLane="-32558_0" arrivalPos="26.40" arrivalSpeed="0.15" duration="126.00" routeLength="876.19" waitingTime="40.00" waitingCount="2" stopTime="0.00" timeLoss="58.77" rerouteNo="0" devices="tripinfo_randUni1024:1" vType="passenger2b" speedFactor="0.94" vaporized=""/>
    <tripinfo id="randUni19500:1" depart="302.00" departLane="-30552_0" departPos="21.70" departSpeed="0.00" departDelay="0.01" arrival="379.00" arrivalLane="--30968#1_0" arrivalPos="43.38" arrivalSpeed="0.82" duration="77.00" routeLength="898.90" waitingTime="0.00" waitingCount="0" stopTime="0.00" timeLoss="14.19" rerouteNo="0" devices="tripinfo_randUni19500:1" vType="passenger2b" speedFactor="1.03" vaporized=""/>
    <tripinfo id="randUni7144:1" depart="522.00" departLane="-32618#5_0" departPos="13.80" departSpeed="0.00" departDelay="0.00" arrival="568.00" arrivalLane="-31066#8_1" arrivalPos="9.09" arrivalSpeed="0.19" duration="46.00" routeLength="521.93" waitingTime="0.00" waitingCount="0" stopTime="0.00" timeLoss="10.07" rerouteNo="0" devices="tripinfo_randUni7144:1" vType="passenger1" speedFactor="1.05" vaporized=""/>
    <tripinfo id="randUni1785:1" depart="435.00" departLane="-31340#0_0" departPos="355.54" departSpeed="0.00" departDelay="0.39" arrival="612.00" arrivalLane="-31066#8_1" arrivalPos="122.95" arrivalSpeed="0.34" duration="177.00" routeLength="1809.96" waitingTime="0.00" waitingCount="0" stopTime="0.00" timeLoss="20.20" rerouteNo="0" devices="tripinfo_randUni1785:1" vType="passenger1" speedFactor="0.83" vaporized=""/>
    <tripinfo id="randUni18347:1" depart="577.00" departLane="--30892#25_0" departPos="184.46" departSpeed="0.00" departDelay="0.00" arrival="690.00" arrivalLane="-31066#8_0" arrivalPos="155.29" arrivalSpeed="0.30" duration="113.00" routeLength="649.16" waitingTime="44.00" waitingCount="1" stopTime="0.00" timeLoss="60.26" rerouteNo="0" devices="tripinfo_randUni18347:1" vType="passenger1" speedFactor="0.89" vaporized=""/>
    <tripinfo id="randUni4182:1" depart="633.00" departLane="-31340#0_0" departPos="172.47" departSpeed="0.00" departDelay="0.60" arrival="715.00" arrivalLane="--30740#2_0" arrivalPos="0.47" arrivalSpeed="0.12" duration="82.00" routeLength="902.22" waitingTime="0.00" waitingCount="0" stopTime="0.00" timeLoss="12.75" rerouteNo="0" devices="tripinfo_randUni4182:1" vType="passenger1" speedFactor="0.94" vaporized=""/>
    <tripinfo id="randUni11559:1" depart="753.00" departLane="-30740#0_0" departPos="113.57" departSpeed="0.00" departDelay="0.00" arrival="799.00" arrivalLane="--31340#0_0" arrivalPos="300.61" arrivalSpeed="0.24" duration="46.00" routeLength="530.85" waitingTime="0.00" waitingCount="0" stopTime="0.00" timeLoss="10.96" rerouteNo="0" devices="tripinfo_randUni11559:1" vType="passenger1" speedFactor="1.09" vaporized=""/>
    <tripinfo id="randUni3220:1" depart="662.00" departLane="--30892#26_0" departPos="14.61" departSpeed="0.00" departDelay="0.92" arrival="852.00" arrivalLane="--30892#20_0" arrivalPos="21.09" arrivalSpeed="0.23" duration="190.00" routeLength="1101.46" waitingTime="77.00" waitingCount="2" stopTime="0.00" timeLoss="97.46" rerouteNo="0" devices="tripinfo_randUni3220:1" vType="passenger2b" speedFactor="0.86" vaporized=""/>
    <tripinfo id="randUni13901:1" depart="776.00" departLane="-31340#0_0" departPos="537.48" departSpeed="0.00" departDelay="0.71" arrival="852.00" arrivalLane="-30544_0" arrivalPos="26.59" arrivalSpeed="0.12" duration="76.00" routeLength="885.39" waitingTime="0.00" waitingCount="0" stopTime="0.00" timeLoss="13.89" rerouteNo="0" devices="tripinfo_randUni13901:1" vType="passenger2b" speedFactor="1.03" vaporized=""/>
    <tripinfo id="randUni12682:1" depart="886.00" departLane="--31066#4_0" departPos="50.65" departSpeed="0.00" departDelay="0.00" arrival="941.00" arrivalLane="--31340#0_0" arrivalPos="29.79" arrivalSpeed="0.30" duration="55.00" routeLength="630.92" waitingTime="0.00" waitingCount="0" stopTime="0.00" timeLoss="9.18" rerouteNo="0" devices="tripinfo_randUni12682:1" vType="passenger5" speedFactor="0.99" vaporized=""/>
    <tripinfo id="randUni690:1" depart="880.00" departLane="-30968#2_0" departPos="20.77" departSpeed="0.00" departDelay="0.00" arrival="955.00" arrivalLane="--30892#20_0" arrivalPos="21.42" arrivalSpeed="0.10" duration="75.00" routeLength="657.98" waitingTime="16.00" waitingCount="2" stopTime="0.00" timeLoss="32.82" rerouteNo="0" devices="tripinfo_randUni690:1" vType="passenger2a" speedFactor="1.12" vaporized=""/>
    <tripinfo id="randUni15016:1" depart="835.00" departLane="-31340#1_0" departPos="48.90" departSpeed="0.00" departDelay="0.00" arrival="966.00" arrivalLane="--30892#20_0" arrivalPos="10.09" arrivalSpeed="0.25" duration="131.00" routeLength="1297.04" waitingTime="22.00" waitingCount="1" stopTime="0.00" timeLoss="41.82" rerouteNo="0" devices="tripinfo_randUni15016:1" vType="passenger2b" speedFactor="1.05" vaporized=""/>
    <tripinfo id="randUni1008:1" depart="907.00" departLane="-30892#20_0" departPos="7.42" departSpeed="0.00" departDelay="0.91" arrival="1056.00" arrivalLane="--31066#0_1" arrivalPos="1.52" arrivalSpeed="0.21" duration="149.00" routeLength="1387.95" waitingTime="17.00" waitingCount="1" stopTime="0.00" timeLoss="41.19" rerouteNo="0" devices="tripinfo_randUni1008:1" vType="passenger1" speedFactor="0.93" vaporized=""/>
    <tripinfo id="randUni1444:1" depart="949.00" departLane="--30348#4_0" departPos="3.58" departSpeed="0.00" departDelay="0.00" arrival="1083.00" arrivalLane="--30892#20_0" arrivalPos="9.62" arrivalSpeed="0.81" duration="134.00" routeLength="990.99" waitingTime="29.00" waitingCount="3" stopTime="0.00" timeLoss="52.78" rerouteNo="0" devices="tripinfo_randUni1444:1" vType="passenger2a" speedFactor="0.88" vaporized=""/>
    <tripinfo id="randUni5421:1" depart="988.00" departLane="-30892#20_0" departPos="0.93" departSpeed="0.00" departDelay="0.60" arrival="1091.00" arrivalLane="-31740#1_0" arrivalPos="16.81" arrivalSpeed="0.34" duration="103.00" routeLength="861.82" waitingTime="18.00" waitingCount="2" stopTime="0.00" timeLoss="36.73" rerouteNo="0" devices="tripinfo_randUni5421:1" vType="passenger2b" speedFactor="0.94" vaporized=""/>
    <tripinfo id="randUni7419:1" depart="984.00" departLane="-30892#20_0" departPos="29.97" departSpeed="0.00" departDelay="0.91" arrival="1098.00" arrivalLane="-30892#26_0" arrivalPos="153.04" arrivalSpeed="0.55" duration="114.00" routeLength="1007.28" waitingTime="21.00" waitingCount="2" stopTime="0.00" timeLoss="36.97" rerouteNo="0" devices="tripinfo_randUni7419:1" vType="passenger1" speedFactor="0.94" vaporized=""/>
    <tripinfo id="randUni5536:1" depart="1162.00" departLane="-30552_0" departPos="60.06" departSpeed="0.00" departDelay="0.45" arrival="1249.00" arrivalLane="--31340#0_0" arrivalPos="492.99" arrivalSpeed="0.61" duration="87.00" routeLength="1107.05" waitingTime="0.00" waitingCount="0" stopTime="0.00" timeLoss="18.19" rerouteNo="0" devices="tripinfo_randUni5536:1" vType="passenger5" speedFactor="1.16" vaporized=""/>
    <tripinfo id="randUni18554:1" depart="1208.00" departLane="--31066#8_0" departPos="55.33" departSpeed="0.00" departDelay="0.63" arrival="1276.00" arrivalLane="--31066#6_0" arrivalPos="13.04" arrivalSpeed="0.15" duration="68.00" routeLength="800.55" waitingTime="0.00" waitingCount="0" stopTime="0.00" timeLoss="11.39" rerouteNo="0" devices="tripinfo_randUni18554:1" vType="passenger1" speedFactor="1.02" vaporized=""/>
    <tripinfo id="randUni5067:1" depart="1398.00" departLane="--32558_0" departPos="7.19" departSpeed="0.00" departDelay="0.83" arrival="1415.00" arrivalLane="-30892#26_0" arrivalPos="99.38" arrivalSpeed="0.14" duration="17.00" routeLength="131.01" waitingTime="0.00" waitingCount="0" stopTime="0.00" timeLoss="5.58" rerouteNo="0" devices="tripinfo_randUni5067:1" vType="passenger2a" speedFactor="0.83" vaporized=""/>
    <tripinfo id="randUni9974:1" depart="1343.00" departLane="-30892#20_0" departPos="6.99" departSpeed="0.00" departDelay="0.39" arrival="1440.00" arrivalLane="-30970#0_0" arrivalPos="34.85" arrivalSpeed="0.49" duration="97.00" routeLength="1080.67" waitingTime="0.00" waitingCount="0" stopTime="0.00" timeLoss="19.99" rerouteNo="0" devices="tripinfo_randUni9974:1" vType="passenger2b" speedFactor="1.01" vaporized=""/>
    <tripinfo id="randUni11209:1" depart="1364.00" departLane="-31340#0_0" departPos="109.51" departSpeed="0.00" departDelay="0.70" arrival="1462.00" arrivalLane="--30552_0" arrivalPos="11.63" arrivalSpeed="0.12" duration="98.00" routeLength="1121.41" waitingTime="0.00" waitingCount="0" stopTime="0.00" timeLoss="15.20" rerouteNo="0" devices="tripinfo_randUni11209:1" vType="passenger2b" speedFactor="0.97" vaporized=""/>
    <tripinfo id="randUni16751:1" depart="1397.00" departLane="-30892#20_0" departPos="17.91" departSpeed="0.00" departDelay="0.27" arrival="1471.00" arrivalLane="--30640#1_0" arrivalPos="6.89" arrivalSpeed="1.04" duration="74.00" routeLength="665.53" waitingTime="9.00" waitingCount="1" stopTime="0.00" timeLoss="20.14" rerouteNo="0" devices="tripinfo_randUni16751:1" vType="passenger4" speedFactor="0.89" vaporized=""/>
    <tripinfo id="randUni8293:1" depart="1466.00" departLane="--30640#0_0" departPos="65.94" departSpeed="0.00" departDelay="0.00" arrival="1551.00" arrivalLane="--30552_0" arrivalPos="86.74" arrivalSpeed="2.82" duration="85.00" routeLength="883.82" waitingTime="0.00" waitingCount="0" stopTime="0.00" timeLoss="12.09" rerouteNo="0" devices="tripinfo_randUni8293:1" vType="passenger1" speedFactor="0.87" vaporized=""/>
    <tripinfo id="randUni18499:1" depart="1537.00" departLane="-32914#1_0" departPos="12.50" departSpeed="0.00" departDelay="0.00" arrival="1578.00" arrivalLane="--30552_0" arrivalPos="8.01" arrivalSpeed="0.39" duration="41.00" routeLength="418.96" waitingTime="0.00" waitingCount="0" stopTime="0.00" timeLoss="9.22" rerouteNo="0" devices="tripinfo_randUni18499:1" vType="passenger1" speedFactor="0.95" vaporized=""/>
    <tripinfo id="randUni18419:1" depart="1478.00" departLane="--30892#26_0" departPos="226.66" departSpeed="0.00" departDelay="0.47" arrival="1632.00" arrivalLane="--30552_0" arrivalPos="73.00" arrivalSpeed="0.15" duration="154.00" routeLength="1160.76" waitingTime="44.00" waitingCount="1" stopTime="0.00" timeLoss="62.89" rerouteNo="0" devices="tripinfo_randUni18419:1" vType="passenger2a" speedFactor="0.92" vaporized=""/>
    <tripinfo id="randUni17833:1" depart="1615.00" departLane="-30892#20_0" departPos="15.43" departSpeed="0.00" departDelay="0.30" arrival="1693.00" arrivalLane="--31066#6_0" arrivalPos="58.65" arrivalSpeed="0.26" duration="78.00" routeLength="857.49" waitingTime="0.00" waitingCount="0" stopTime="0.00" timeLoss="11.72" rerouteNo="0" devices="tripinfo_randUni17833:1" vType="passenger2a" speedFactor="0.93" vaporized=""/>
    <tripinfo id="randUni11061:1" depart="1588.00" departLane="--30892#26_0" departPos="74.61" departSpeed="0.00" departDelay="0.08" arrival="1756.00" arrivalLane="-31066#8_1" arrivalPos="139.24" arrivalSpeed="0.11" duration="168.00" routeLength="1614.76" waitingTime="32.00" waitingCount="2" stopTime="0.00" timeLoss="65.29" rerouteNo="0" devices="tripinfo_randUni11061:1" vType="passenger4" speedFactor="1.13" vaporized=""/>
    <tripinfo id="randUni15024:1" depart="1745.00" departLane="-30552_0" departPos="24.45" departSpeed="0.00" departDelay="0.51" arrival="1798.00" arrivalLane="--32984#0_0" arrivalPos="0.20" arrivalSpeed="0.29" duration="53.00" routeLength="662.37" waitingTime="0.00" waitingCount="0" stopTime="0.00" timeLoss="11.69" rerouteNo="0" devices="tripinfo_randUni15024:1" vType="passenger2a" speedFactor="1.15" vaporized=""/>
    <tripinfo id="randUni12109:1" depart="1722.00" departLane="-30892#20_0" departPos="0.87" departSpeed="0.00" departDelay="0.33" arrival="1817.00" arrivalLane="-30892#26_0" arrivalPos="144.04" arrivalSpeed="0.07" duration="95.00" routeLength="1027.38" waitingTime="9.00" waitingCount="3" stopTime="0.00" timeLoss="32.25" rerouteNo="0" devices="tripinfo_randUni12109:1" vType="passenger4" speedFactor="1.18" vaporized=""/>
    <tripinfo id="randUni15028:1" depart="1746.00" departLane="--32918#0_0" departPos="43.94" departSpeed="0.00" departDelay="0.00" arrival="1880.00" arrivalLane="-32528#2_0" arrivalPos="0.03" arrivalSpeed="0.15" duration="134.00" routeLength="906.11" waitingTime="48.00" waitingCount="1" stopTime="0.00" timeLoss="69.11" rerouteNo="0" devices="tripinfo_randUni15028:1" vType="passenger1" speedFactor="1.01" vaporized=""/>
    <tripinfo id="randUni4895:1" depart="1853.00" departLane="--32874#0_0" departPos="1.39" departSpeed="0.00" departDelay="0.00" arrival="1892.00" arrivalLane="--30552_0" arrivalPos="16.49" arrivalSpeed="0.11" duration="39.00" routeLength="406.63" waitingTime="0.00" waitingCount="0" stopTime="0.00" timeLoss="9.58" rerouteNo="0" devices="tripinfo_randUni4895:1" vType="passenger1" speedFactor="0.99" vaporized=""/>
    <tripinfo id="randUni5874:1" depart="1816.00" departLane="-31340#0_0" departPos="605.16" departSpeed="0.00" departDelay="0.33" arrival="1957.00" arrivalLane="-32558_1" arrivalPos="28.29" arrivalSpeed="0.21" duration="141.00" routeLength="1330.68" waitingTime="28.00" waitingCount="1" stopTime="0.00" timeLoss="59.25" rerouteNo="0" devices="tripinfo_randUni5874:1" vType="passenger2a" speedFactor="1.17" vaporized=""/>
    <tripinfo id="randUni4890:1" depart="1858.00" departLane="-31340#0_0" departPos="116.70" departSpeed="0.00" departDelay="0.85" arrival="2052.00" arrivalLane="--30892#23_0" arrivalPos="26.62" arrivalSpeed="0.09" duration="194.00" routeLength="1575.34" waitingTime="58.00" waitingCount="3" stopTime="0.00" timeLoss="82.78" rerouteNo="0" devices="tripinfo_randUni4890:1" vType="passenger2a" speedFactor="1.02" vaporized=""/>
    <tripinfo id="randUni18177:1" depart="2313.00" departLane="--30892#26_0" departPos="20.85" departSpeed="0.00" departDelay="0.56" arrival="2446.00" arrivalLane="-31066#5_1" arrivalPos="24.99" arrivalSpeed="0.42" duration="133.00" routeLength="1517.73" waitingTime="4.00" waitingCount="1" stopTime="0.00" timeLoss="20.73" rerouteNo="0" devices="tripinfo_randUni18177:1" vType="passenger1" speedFactor="0.97" vaporized=""/>
    <tripinfo id="randUni6332:1" depart="2361.00" departLane="--30892#26_0" departPos="137.48" departSpeed="0.00" departDelay="0.49" arrival="2526.00" arrivalLane="--30892#20_0" arrivalPos="31.09" arrivalSpeed="0.07" duration="165.00" routeLength="988.59" waitingTime="80.00" waitingCount="4" stopTime="0.00" timeLoss="104.67" rerouteNo="0" devices="tripinfo_randUni6332:1" vType="passenger1" speedFactor="1.18" vaporized=""/>
    <tripinfo id="randUni15613:1" depart="2462.00" departLane="-30892#20_0" departPos="6.49" departSpeed="0.00" departDelay="0.81" arrival="2568.00" arrivalLane="--31186#1_0" arrivalPos="17.70" arrivalSpeed="0.21" duration="106.00" routeLength="1323.43" waitingTime="0.00" waitingCount="0" stopTime="0.00" timeLoss="19.57" rerouteNo="0" devices="tripinfo_randUni15613:1" vType="passenger1" speedFactor="1.10" vaporized=""/>
    <tripinfo id="randUni12881:1" depart="2581.00" departLane="--30892#22_0" departPos="41.78" departSpeed="0.00" departDelay="0.00" arrival="2614.00" arrivalLane="--30892#20_0" arrivalPos="10.62" arrivalSpeed="0.08" duration="33.00" routeLength="264.08" waitingTime="2.00" waitingCount="2" stopTime="0.00" timeLoss="11.89" rerouteNo="0" devices="tripinfo_randUni12881:1" vType="passenger2b" speedFactor="0.90" vaporized=""/>
    <tripinfo id="randUni3822:1" depart="2648.00" departLane="--32558_0" departPos="6.33" departSpeed="0.00" departDelay="0.70" arrival="2661.00" arrivalLane="-30892#26_0" arrivalPos="11.32" arrivalSpeed="0.14" duration="13.00" routeLength="43.82" waitingTime="0.00" waitingCount="0" stopTime="0.00" timeLoss="9.71" rerouteNo="0" devices="tripinfo_randUni3822:1" vType="passenger1" speedFactor="0.96" vaporized=""/>
    <tripinfo id="randUni18802:1" depart="2621.00" departLane="-32914#1_0" departPos="3.78" departSpeed="0.00" departDelay="0.00" arrival="2666.00" arrivalLane="--31340#0_0" arrivalPos="116.50" arrivalSpeed="0.13" duration="45.00" routeLength="538.30" waitingTime="0.00" waitingCount="0" stopTime="0.00" timeLoss="7.39" rerouteNo="0" devices="tripinfo_randUni18802:1" vType="passenger2b" speedFactor="1.03" vaporized=""/>
    <tripinfo id="randUni1025:1" depart="2725.00" departLane="--31066#3_0" departPos="53.62" departSpeed="0.00" departDelay="0.00" arrival="2815.00" arrivalLane="--30892#20_0" arrivalPos="2.51" arrivalSpeed="0.15" duration="90.00" routeLength="1133.39" waitingTime="0.00" waitingCount="0" stopTime="0.00" timeLoss="15.27" rerouteNo="0" devices="tripinfo_randUni1025:1" vType="passenger1" speedFactor="1.09" vaporized=""/>
    <tripinfo id="randUni12355:1" depart="2802.00" departLane="-30552_0" departPos="72.37" departSpeed="0.00" departDelay="0.07" arrival="2908.00" arrivalLane="-30892#26_0" arrivalPos="174.40" arrivalSpeed="0.58" duration="106.00" routeLength="1325.71" waitingTime="0.00" waitingCount="0" stopTime="0.00" timeLoss="14.03" rerouteNo="0" devices="tripinfo_randUni12355:1" vType="passenger2b" speedFactor="1.04" vaporized=""/>
    <tripinfo id="randUni8128:1" depart="2824.00" departLane="--31948#0_0" departPos="28.34" departSpeed="0.00" departDelay="0.00" arrival="2933.00" arrivalLane="--31340#0_0" arrivalPos="272.91" arrivalSpeed="0.76" duration="109.00" routeLength="1367.44" waitingTime="0.00" waitingCount="0" stopTime="0.00" timeLoss="14.65" rerouteNo="0" devices="tripinfo_randUni8128:1" vType="passenger2b" speedFactor="1.04" vaporized=""/>
    <tripinfo id="randUni4891:1" depart="2863.00" departLane="-31066#2_0" departPos="23.30" departSpeed="0.00" departDelay="0.00" arrival="2962.00" arrivalLane="--30892#20_0" arrivalPos="12.21" arrivalSpeed="0.14" duration="99.00" routeLength="1168.50" waitingTime="0.00" waitingCount="0" stopTime="0.00" timeLoss="14.66" rerouteNo="0" devices="tripinfo_randUni4891:1" vType="passenger5" speedFactor="1.00" vaporized=""/>
    <tripinfo id="randUni660:1" depart="2863.00" departLane="-30892#20_0" departPos="13.07" departSpeed="0.00" departDelay="0.42" arrival="3013.00" arrivalLane="--31340#0_0" arrivalPos="396.66" arrivalSpeed="0.17" duration="150.00" routeLength="1978.92" waitingTime="0.00" waitingCount="0" stopTime="0.00" timeLoss="19.06" rerouteNo="0" devices="tripinfo_randUni660:1" vType="passenger2a" speedFactor="1.09" vaporized=""/>
    <tripinfo id="randUni9525:1" depart="3153.00" departLane="-30552_0" departPos="54.81" departSpeed="0.00" departDelay="0.87" arrival="3229.00" arrivalLane="-32332#0_0" arrivalPos="110.15" arrivalSpeed="0.20" duration="76.00" routeLength="715.76" waitingTime="0.00" waitingCount="0" stopTime="0.00" timeLoss="17.24" rerouteNo="0" devices="tripinfo_randUni9525:1" vType="passenger1" speedFactor="0.88" vaporized=""/>
    <tripinfo id="randUni14352:1" depart="3222.00" departLane="-31340#0_0" departPos="603.08" departSpeed="0.00" departDelay="0.29" arrival="3260.00" arrivalLane="-31066#1_0" arrivalPos="1.22" arrivalSpeed="0.15" duration="38.00" routeLength="354.98" waitingTime="0.00" waitingCount="0" stopTime="0.00" timeLoss="7.95" rerouteNo="0" devices="tripinfo_randUni14352:1" vType="passenger1" speedFactor="0.85" vaporized=""/>
    <tripinfo id="randUni16659:1" depart="3149.00" departLane="-32874#2_0" departPos="64.99" departSpeed="0.00" departDelay="0.00" arrival="3279.00" arrivalLane="--30892#20_0" arrivalPos="16.07" arrivalSpeed="2.24" duration="130.00" routeLength="1138.60" waitingTime="19.00" waitingCount="1" stopTime="0.00" timeLoss="38.97" rerouteNo="0" devices="tripinfo_randUni16659:1" vType="passenger2a" speedFactor="0.90" vaporized=""/>
    <tripinfo id="randUni472:1" depart="3333.00" departLane="--30346#0_0" departPos="57.18" departSpeed="0.00" departDelay="0.00" arrival="3398.00" arrivalLane="--30892#20_0" arrivalPos="9.48" arrivalSpeed="0.10" duration="65.00" routeLength="569.66" waitingTime="4.00" waitingCount="1" stopTime="0.00" timeLoss="17.03" rerouteNo="0" devices="tripinfo_randUni472:1" vType="passenger1" speedFactor="0.85" vaporized=""/>
    <tripinfo id="randUni15698:1" depart="3471.00" departLane="--30892#20_0" departPos="27.38" departSpeed="0.00" departDelay="0.00" arrival="3472.00" arrivalLane="--30892#20_0" arrivalPos="3.28" arrivalSpeed="0.00" duration="1.00" routeLength="-24.10" waitingTime="1.00" waitingCount="1" stopTime="0.00" timeLoss="1.00" rerouteNo="0" devices="tripinfo_randUni15698:1" vType="passenger1" speedFactor="1.17" vaporized=""/>
    <tripinfo id="randUni5761:1" depart="3564.00" departLane="-31340#0_0" departPos="374.04" departSpeed="0.00" departDelay="0.24" arrival="3698.00" arrivalLane="-32558_0" arrivalPos="12.60" arrivalSpeed="0.14" duration="134.00" routeLength="1667.16" waitingTime="0.00" waitingCount="0" stopTime="0.00" timeLoss="15.96" rerouteNo="0" devices="tripinfo_randUni5761:1" vType="passenger1" speedFactor="1.02" vaporized=""/>
    <tripinfo id="randUni13708:1" depart="3633.00" departLane="-32874#1_0" departPos="104.59" departSpeed="0.00" departDelay="0.00" arrival="3755.00" arrivalLane="-31066#8_1" arrivalPos="148.13" arrivalSpeed="0.38" duration="122.00" routeLength="1082.17" waitingTime="32.00" waitingCount="1" stopTime="0.00" timeLoss="50.90" rerouteNo="0" devices="tripinfo_randUni13708:1" vType="passenger1" speedFactor="1.10" vaporized=""/>
    <tripinfo id="randUni17743:1" depart="3760.00" departLane="-31066#0_0" departPos="1.96" departSpeed="0.00" departDelay="0.00" arrival="3814.00" arrivalLane="--31340#0_0" arrivalPos="265.08" arrivalSpeed="0.07" duration="54.00" routeLength="575.65" waitingTime="1.00" waitingCount="1" stopTime="0.00" timeLoss="7.90" rerouteNo="0" devices="tripinfo_randUni17743:1" vType="passenger1" speedFactor="0.90" vaporized=""/>
    <tripinfo id="randUni17830:1" depart="3759.00" departLane="-30892#20_0" departPos="14.61" departSpeed="0.00" departDelay="0.21" arrival="3881.00" arrivalLane="-30892#26_0" arrivalPos="71.59" arrivalSpeed="0.12" duration="122.00" routeLength="941.19" waitingTime="37.00" waitingCount="1" stopTime="0.00" timeLoss="53.97" rerouteNo="0" devices="tripinfo_randUni17830:1" vType="passenger1" speedFactor="1.00" vaporized=""/>
    <tripinfo id="randUni17538:1" depart="3750.00" departLane="--30892#26_0" departPos="24.61" departSpeed="0.00" departDelay="0.45" arrival="3885.00" arrivalLane="--30892#20_0" arrivalPos="14.28" arrivalSpeed="0.14" duration="135.00" routeLength="1084.65" waitingTime="36.00" waitingCount="2" stopTime="0.00" timeLoss="57.16" rerouteNo="0" devices="tripinfo_randUni17538:1" vType="passenger1" speedFactor="1.00" vaporized=""/>
    <tripinfo id="randUni15731:1" depart="3932.00" departLane="-30892#20_0" departPos="24.47" departSpeed="0.00" departDelay="0.64" arrival="4004.00" arrivalLane="-32474#0_0" arrivalPos="23.36" arrivalSpeed="0.11" duration="72.00" routeLength="960.36" waitingTime="0.00" waitingCount="0" stopTime="0.00" timeLoss="11.49" rerouteNo="0" devices="tripinfo_randUni15731:1" vType="passenger1" speedFactor="1.14" vaporized=""/>
    <tripinfo id="randUni11606:1" depart="4021.00" departLane="-30552_0" departPos="3.73" departSpeed="0.00" departDelay="0.00" arrival="4068.00" arrivalLane="-31066#5_1" arrivalPos="46.28" arrivalSpeed="1.94" duration="47.00" routeLength="495.81" waitingTime="0.00" waitingCount="0" stopTime="0.00" timeLoss="10.19" rerouteNo="0" devices="tripinfo_randUni11606:1" vType="passenger1" speedFactor="0.97" vaporized=""/>
    <tripinfo id="randUni12113:1" depart="4063.00" departLane="--30892#26_0" departPos="94.70" departSpeed="0.00" departDelay="0.56" arrival="4085.00" arrivalLane="-32558_1" arrivalPos="21.10" arrivalSpeed="0.52" duration="22.00" routeLength="190.96" waitingTime="0.00" waitingCount="0" stopTime="0.00" timeLoss="9.30" rerouteNo="0" devices="tripinfo_randUni12113:1" vType="passenger2b" speedFactor="1.08" vaporized=""/>
    <tripinfo id="randUni18470:1" depart="4071.00" departLane="-30892#20_0" departPos="21.16" departSpeed="0.00" departDelay="0.86" arrival="4130.00" arrivalLane="-31948#0_0" arrivalPos="6.02" arrivalSpeed="0.43" duration="59.00" routeLength="737.62" waitingTime="0.00" waitingCount="0" stopTime="0.00" timeLoss="11.56" rerouteNo="0" devices="tripinfo_randUni18470:1" vType="passenger3" speedFactor="1.12" vaporized=""/>
    <tripinfo id="randUni7076:1" depart="4000.00" departLane="-30892#20_0" departPos="15.04" departSpeed="0.00" departDelay="0.64" arrival="4159.00" arrivalLane="-30892#26_0" arrivalPos="168.99" arrivalSpeed="0.14" duration="159.00" routeLength="1038.16" waitingTime="66.00" waitingCount="2" stopTime="0.00" timeLoss="85.98" rerouteNo="0" devices="tripinfo_randUni7076:1" vType="passenger2b" speedFactor="1.02" vaporized=""/>
    <tripinfo id="randUni15899:1" depart="4098.00" departLane="-31340#4_0" departPos="72.11" departSpeed="0.00" departDelay="0.00" arrival="4171.00" arrivalLane="--31340#0_0" arrivalPos="459.96" arrivalSpeed="0.10" duration="73.00" routeLength="882.35" waitingTime="1.00" waitingCount="1" stopTime="0.00" timeLoss="10.47" rerouteNo="0" devices="tripinfo_randUni15899:1" vType="passenger3" speedFactor="1.02" vaporized=""/>
    <tripinfo id="randUni3030:1" depart="4140.00" departLane="-30892#20_0" departPos="26.49" departSpeed="0.00" departDelay="0.05" arrival="4242.00" arrivalLane="-32332#1_0" arrivalPos="18.89" arrivalSpeed="0.09" duration="102.00" routeLength="1146.98" waitingTime="1.00" waitingCount="1" stopTime="0.00" timeLoss="18.34" rerouteNo="0" devices="tripinfo_randUni3030:1" vType="passenger4" speedFactor="0.99" vaporized=""/>
    <tripinfo id="randUni16252:1" depart="4195.00" departLane="-31340#0_0" departPos="100.13" departSpeed="0.00" departDelay="0.89" arrival="4293.00" arrivalLane="--31698_0" arrivalPos="47.08" arrivalSpeed="0.62" duration="98.00" routeLength="1122.26" waitingTime="0.00" waitingCount="0" stopTime="0.00" timeLoss="11.83" rerouteNo="0" devices="tripinfo_randUni16252:1" vType="passenger2a" speedFactor="0.94" vaporized=""/>
    <tripinfo id="randUni8847:1" depart="4239.00" departLane="-31340#0_0" departPos="280.94" departSpeed="0.00" departDelay="0.74" arrival="4418.00" arrivalLane="--30892#20_0" arrivalPos="11.64" arrivalSpeed="0.91" duration="179.00" routeLength="1910.29" waitingTime="0.00" waitingCount="0" stopTime="0.00" timeLoss="23.12" rerouteNo="0" devices="tripinfo_randUni8847:1" vType="passenger2a" speedFactor="0.88" vaporized=""/>
    <tripinfo id="randUni10370:1" depart="4342.00" departLane="--32558_0" departPos="17.55" departSpeed="0.00" departDelay="0.48" arrival="4525.00" arrivalLane="--31340#0_0" arrivalPos="583.22" arrivalSpeed="0.20" duration="183.00" routeLength="1807.79" waitingTime="18.00" waitingCount="1" stopTime="0.00" timeLoss="39.48" rerouteNo="0" devices="tripinfo_randUni10370:1" vType="passenger2b" speedFactor="0.91" vaporized=""/>
    <tripinfo id="randUni8307:1" depart="4425.00" departLane="--30892#26_0" departPos="67.21" departSpeed="0.00" departDelay="0.09" arrival="4607.00" arrivalLane="--30892#20_0" arrivalPos="10.79" arrivalSpeed="0.12" duration="182.00" routeLength="1038.56" waitingTime="82.00" waitingCount="2" stopTime="0.00" timeLoss="100.25" rerouteNo="0" devices="tripinfo_randUni8307:1" vType="passenger1" speedFactor="0.91" vaporized=""/>
    <tripinfo id="randUni12177:1" depart="4490.00" departLane="--31340#3_0" departPos="7.61" departSpeed="0.00" departDelay="0.00" arrival="4615.00" arrivalLane="--30892#20_0" arrivalPos="20.78" arrivalSpeed="0.07" duration="125.00" routeLength="1502.67" waitingTime="1.00" waitingCount="1" stopTime="0.00" timeLoss="20.98" rerouteNo="0" devices="tripinfo_randUni12177:1" vType="passenger2a" speedFactor="1.04" vaporized=""/>