<?xml version="1.0" encoding="UTF-8"?>

<!-- generated on 2023-01-31 10:26:02 by Eclipse SUMO GUI Version 1.15.0
<configuration xmlns:xsi="http://www.w3.org/2001/XMLSchema-instance" xsi:noNamespaceSchemaLocation="http://sumo.dlr.de/xsd/sumoConfiguration.xsd">

    <input>
        <net-file value="/home/jiahao/f2md_on_artery/scenarios/LuSTMiniScenario/lust.net.xml"/>
        <route-files value="/home/jiahao/f2md_on_artery/scenarios/LuSTMiniScenario/buslines.rou.xml,/home/jiahao/f2md_on_artery/scenarios/LuSTMiniScenario/due.local.actuated.0.rou.xml,/home/jiahao/f2md_on_artery/scenarios/LuSTMiniScenario/due.local.actuated.1.rou.xml,/home/jiahao/f2md_on_artery/scenarios/LuSTMiniScenario/due.local.actuated.2.rou.xml"/>
        <additional-files value="/home/jiahao/f2md_on_artery/scenarios/LuSTMiniScenario/vtypes.add.xml,/home/jiahao/f2md_on_artery/scenarios/LuSTMiniScenario/lust.add.xml,/home/jiahao/f2md_on_artery/scenarios/LuSTMiniScenario/lust.poly.xml"/>
    </input>

    <output>
        <summary-output value="/home/jiahao/f2md_on_artery/scenarios/LuSTMiniScenario/due.actuated.summary.xml"/>
        <tripinfo-output value="/home/jiahao/f2md_on_artery/scenarios/LuSTMiniScenario/due.actuated.tripinfo.xml"/>
    </output>

    <time>
        <begin value="0"/>
        <end value="86400"/>
        <step-length value="0.1"/>
    </time>

    <processing>
        <ignore-junction-blocker value="20"/>
        <scale value="1"/>
        <time-to-teleport value="600"/>
        <max-depart-delay value="600"/>
    </processing>

    <routing>
        <routing-algorithm value="dijkstra"/>
    </routing>

    <report>
        <verbose value="true"/>
        <log value="/home/jiahao/f2md_on_artery/scenarios/LuSTMiniScenario/due.actuated.log"/>
    </report>

    <gui_only>
        <gui-settings-file value="/home/jiahao/f2md_on_artery/scenarios/LuSTMiniScenario/gui-settings.cfg.xml"/>
        <start value="true"/>
    </gui_only>

</configuration>
-->

<tripinfos xmlns:xsi="http://www.w3.org/2001/XMLSchema-instance" xsi:noNamespaceSchemaLocation="http://sumo.dlr.de/xsd/tripinfo_file.xsd">
    <tripinfo id="randUni834:1" depart="5.00" departLane="--32406#3_0" departPos="26.42" departSpeed="0.00" departDelay="0.00" arrival="45.00" arrivalLane="--31212_0" arrivalPos="164.32" arrivalSpeed="0.86" duration="40.00" routeLength="465.35" waitingTime="0.00" waitingCount="0" stopTime="0.00" timeLoss="4.30" rerouteNo="0" devices="tripinfo_randUni834:1" vType="passenger2b" speedFactor="0.94" vaporized=""/>
    <tripinfo id="AVL---_CN_1_0" depart="21.00" departLane="--31272#8_0" departPos="0.00" departSpeed="0.00" departDelay="0.00" arrival="143.00" arrivalLane="-31320#2_1" arrivalPos="255.60" arrivalSpeed="17.59" duration="122.00" routeLength="989.68" waitingTime="49.30" waitingCount="1" stopTime="0.00" timeLoss="58.22" rerouteNo="0" devices="tripinfo_AVL---_CN_1_0" vType="bus" speedFactor="1.06" vaporized=""/>
    <tripinfo id="randUni5299:1" depart="37.00" departLane="--32326#1_0" departPos="40.96" departSpeed="0.00" departDelay="0.00" arrival="246.90" arrivalLane="-31920_0" arrivalPos="32.52" arrivalSpeed="0.91" duration="209.90" routeLength="2058.10" waitingTime="13.10" waitingCount="2" stopTime="0.00" timeLoss="31.60" rerouteNo="0" devices="tripinfo_randUni5299:1" vType="passenger1" speedFactor="0.83" vaporized=""/>
    <tripinfo id="randUni14395:1" depart="142.00" departLane="--31986_0" departPos="103.15" departSpeed="0.00" departDelay="0.09" arrival="362.10" arrivalLane="-31844#3_0" arrivalPos="160.88" arrivalSpeed="0.82" duration="220.10" routeLength="2261.29" waitingTime="44.10" waitingCount="2" stopTime="0.00" timeLoss="64.43" rerouteNo="0" devices="tripinfo_randUni14395:1" vType="passenger1" speedFactor="1.05" vaporized=""/>
    <tripinfo id="randUni1024:1" depart="160.30" departLane="-32924#7_0" departPos="0.24" departSpeed="0.00" departDelay="0.09" arrival="364.10" arrivalLane="-30892#20_1" arrivalPos="0.98" arrivalSpeed="1.16" duration="203.80" routeLength="1278.52" waitingTime="85.40" waitingCount="2" stopTime="0.00" timeLoss="99.92" rerouteNo="0" devices="tripinfo_randUni1024:1" vType="passenger2b" speedFactor="0.89" vaporized=""/>
    <tripinfo id="randUni10908:1" depart="229.40" departLane="-30802#3_0" departPos="9.69" departSpeed="0.00" departDelay="0.08" arrival="365.70" arrivalLane="--32160#3_0" arrivalPos="34.01" arrivalSpeed="0.85" duration="136.30" routeLength="1643.18" waitingTime="0.00" waitingCount="0" stopTime="0.00" timeLoss="10.17" rerouteNo="0" devices="tripinfo_randUni10908:1" vType="passenger2b" speedFactor="0.94" vaporized=""/>
    <tripinfo id="randUni15131:1" depart="435.10" departLane="--30892#19_0" departPos="2.40" departSpeed="0.00" departDelay="0.07" arrival="485.20" arrivalLane="-31272#5_0" arrivalPos="33.46" arrivalSpeed="1.07" duration="50.10" routeLength="531.39" waitingTime="2.90" waitingCount="1" stopTime="0.00" timeLoss="14.83" rerouteNo="0" devices="tripinfo_randUni15131:1" vType="passenger2a" speedFactor="0.99" vaporized=""/>
    <tripinfo id="randUni1749:1" depart="267.50" departLane="--31668#1_0" departPos="0.92" departSpeed="0.00" departDelay="0.03" arrival="490.10" arrivalLane="-32750#10_0" arrivalPos="46.72" arrivalSpeed="0.79" duration="222.60" routeLength="2220.95" waitingTime="39.90" waitingCount="2" stopTime="0.00" timeLoss="66.80" rerouteNo="0" devices="tripinfo_randUni1749:1" vType="passenger1" speedFactor="1.03" vaporized=""/>
    <tripinfo id="AVL---_CN_3_0" depart="299.70" departLane="--30892#20_1" departPos="0.00" departSpeed="0.00" departDelay="0.02" arrival="537.20" arrivalLane="-32750#10_0" arrivalPos="68.42" arrivalSpeed="14.31" duration="237.50" routeLength="1486.16" waitingTime="109.50" waitingCount="4" stopTime="0.00" timeLoss="133.58" rerouteNo="0" devices="tripinfo_AVL---_CN_3_0" vType="bus" speedFactor="1.03" vaporized=""/>
    <tripinfo id="randUni4743:1" depart="315.00" departLane="-31496#13_0" departPos="31.37" departSpeed="0.00" departDelay="0.00" arrival="585.40" arrivalLane="-32750#10_0" arrivalPos="32.36" arrivalSpeed="0.82" duration="270.40" routeLength="1242.32" waitingTime="151.60" waitingCount="5" stopTime="0.00" timeLoss="184.99" rerouteNo="0" devices="tripinfo_randUni4743:1" vType="passenger5" speedFactor="1.05" vaporized=""/>
    <tripinfo id="AVL---_CN_3_1" depart="373.20" departLane="--32750#10_2" departPos="0.00" departSpeed="0.00" departDelay="0.05" arrival="592.90" arrivalLane="-30892#20_0" arrivalPos="21.51" arrivalSpeed="11.79" duration="219.70" routeLength="1498.03" waitingTime="78.00" waitingCount="3" stopTime="0.00" timeLoss="93.79" rerouteNo="0" devices="tripinfo_AVL---_CN_3_1" vType="bus" speedFactor="0.86" vaporized=""/>
    <tripinfo id="randUni1262:1" depart="587.00" departLane="-31878#4_0" departPos="47.39" departSpeed="0.00" departDelay="0.00" arrival="655.60" arrivalLane="-31940#5_2" arrivalPos="271.82" arrivalSpeed="0.79" duration="68.60" routeLength="863.38" waitingTime="0.00" waitingCount="0" stopTime="0.00" timeLoss="7.55" rerouteNo="0" devices="tripinfo_randUni1262:1" vType="passenger4" speedFactor="1.02" vaporized=""/>
    <tripinfo id="randUni7788:1" depart="416.30" departLane="-32924#7_0" departPos="12.56" departSpeed="0.00" departDelay="0.05" arrival="669.00" arrivalLane="-30802#2_1" arrivalPos="16.60" arrivalSpeed="0.93" duration="252.70" routeLength="2654.36" waitingTime="47.80" waitingCount="3" stopTime="0.00" timeLoss="82.52" rerouteNo="0" devices="tripinfo_randUni7788:1" vType="passenger5" speedFactor="1.12" vaporized=""/>
    <tripinfo id="randUni4383:1" depart="479.00" departLane="--30872#10_0" departPos="79.82" departSpeed="0.00" departDelay="0.00" arrival="715.00" arrivalLane="-30892#19_0" arrivalPos="3.46" arrivalSpeed="1.03" duration="236.00" routeLength="1220.58" waitingTime="111.30" waitingCount="5" stopTime="0.00" timeLoss="138.05" rerouteNo="0" devices="tripinfo_randUni4383:1" vType="passenger2b" speedFactor="0.88" vaporized=""/>
    <tripinfo id="randUni11885:1" depart="685.60" departLane="-32776#4_0" departPos="74.37" departSpeed="0.00" departDelay="0.09" arrival="743.20" arrivalLane="-31992#3_1" arrivalPos="17.42" arrivalSpeed="1.02" duration="57.60" routeLength="666.46" waitingTime="0.00" waitingCount="0" stopTime="0.00" timeLoss="7.04" rerouteNo="0" devices="tripinfo_randUni11885:1" vType="passenger1" speedFactor="0.95" vaporized=""/>
    <tripinfo id="randUni5985:1" depart="580.00" departLane="-31610#4_0" departPos="94.75" departSpeed="0.00" departDelay="0.00" arrival="746.60" arrivalLane="-30944_0" arrivalPos="10.48" arrivalSpeed="0.90" duration="166.60" routeLength="1840.31" waitingTime="9.40" waitingCount="2" stopTime="0.00" timeLoss="32.66" rerouteNo="0" devices="tripinfo_randUni5985:1" vType="passenger2a" speedFactor="0.94" vaporized=""/>
    <tripinfo id="randUni18817:1" depart="609.00" departLane="--31668#1_0" departPos="6.25" departSpeed="0.00" departDelay="0.06" arrival="766.40" arrivalLane="-31204#3_0" arrivalPos="200.66" arrivalSpeed="1.05" duration="157.40" routeLength="1722.69" waitingTime="0.00" waitingCount="0" stopTime="0.00" timeLoss="7.20" rerouteNo="0" devices="tripinfo_randUni18817:1" vType="passenger2a" speedFactor="0.83" vaporized=""/>
    <tripinfo id="randUni6078:1" depart="599.20" departLane="-31272#6_0" departPos="29.16" departSpeed="0.00" departDelay="0.02" arrival="766.60" arrivalLane="-32858#1-AddedOnRampEdge_1" arrivalPos="38.21" arrivalSpeed="1.06" duration="167.40" routeLength="1633.00" waitingTime="52.30" waitingCount="1" stopTime="0.00" timeLoss="64.52" rerouteNo="0" devices="tripinfo_randUni6078:1" vType="passenger2a" speedFactor="0.89" vaporized=""/>
    <tripinfo id="randUni20223:1" depart="529.20" departLane="-32776#4_0" departPos="12.33" departSpeed="0.00" departDelay="0.06" arrival="777.00" arrivalLane="-32750#10_0" arrivalPos="35.61" arrivalSpeed="1.13" duration="247.80" routeLength="1876.07" waitingTime="81.60" waitingCount="3" stopTime="0.00" timeLoss="104.33" rerouteNo="0" devices="tripinfo_randUni20223:1" vType="passenger2b" speedFactor="0.94" vaporized=""/>
    <tripinfo id="randUni4303:1" depart="592.00" departLane="--30892#4_0" departPos="6.54" departSpeed="0.00" departDelay="0.00" arrival="790.30" arrivalLane="--31496#9_0" arrivalPos="208.45" arrivalSpeed="0.92" duration="198.30" routeLength="2105.93" waitingTime="19.00" waitingCount="3" stopTime="0.00" timeLoss="42.80" rerouteNo="0" devices="tripinfo_randUni4303:1" vType="passenger2b" speedFactor="0.97" vaporized=""/>
    <tripinfo id="randUni226:1" depart="718.60" departLane="-30384#0_0" departPos="37.00" departSpeed="0.00" departDelay="0.06" arrival="801.80" arrivalLane="--31970_0" arrivalPos="21.79" arrivalSpeed="1.13" duration="83.20" routeLength="1057.99" waitingTime="0.90" waitingCount="1" stopTime="0.00" timeLoss="16.85" rerouteNo="0" devices="tripinfo_randUni226:1" vType="passenger1" speedFactor="1.13" vaporized=""/>
    <tripinfo id="randUni7144:1" depart="588.80" departLane="--30892#19_0" departPos="24.55" departSpeed="0.00" departDelay="0.07" arrival="835.30" arrivalLane="-30384#2_0" arrivalPos="118.07" arrivalSpeed="1.12" duration="246.50" routeLength="1579.32" waitingTime="110.40" waitingCount="4" stopTime="0.00" timeLoss="135.50" rerouteNo="0" devices="tripinfo_randUni7144:1" vType="passenger1" speedFactor="1.01" vaporized=""/>
    <tripinfo id="randUni3220:1" depart="734.30" departLane="--30892#20_0" departPos="11.09" departSpeed="0.00" departDelay="0.00" arrival="848.90" arrivalLane="--31272#5_0" arrivalPos="9.92" arrivalSpeed="0.71" duration="114.60" routeLength="527.78" waitingTime="62.00" waitingCount="2" stopTime="0.00" timeLoss="73.80" rerouteNo="0" devices="tripinfo_randUni3220:1" vType="passenger2b" speedFactor="0.93" vaporized=""/>
    <tripinfo id="randUni10497:1" depart="584.00" departLane="-31834#2_0" departPos="1.80" departSpeed="0.00" departDelay="0.05" arrival="870.70" arrivalLane="-31844#3_0" arrivalPos="172.75" arrivalSpeed="0.88" duration="286.70" routeLength="1746.83" waitingTime="151.00" waitingCount="3" stopTime="0.00" timeLoss="179.44" rerouteNo="0" devices="tripinfo_randUni10497:1" vType="passenger1" speedFactor="1.16" vaporized=""/>
    <tripinfo id="randUni18335:1" depart="477.60" departLane="-30962#0_0" departPos="8.27" departSpeed="0.00" departDelay="0.09" arrival="886.00" arrivalLane="-31940#5_0" arrivalPos="197.88" arrivalSpeed="0.75" duration="408.40" routeLength="2075.40" waitingTime="212.40" waitingCount="7" stopTime="0.00" timeLoss="247.19" rerouteNo="0" devices="tripinfo_randUni18335:1" vType="passenger3" speedFactor="0.93" vaporized=""/>
    <tripinfo id="randUni359:1" depart="754.70" departLane="-32924#7_0" departPos="6.57" departSpeed="0.00" departDelay="0.01" arrival="888.00" arrivalLane="--30770#1_0" arrivalPos="16.34" arrivalSpeed="0.83" duration="133.30" routeLength="813.02" waitingTime="65.90" waitingCount="2" stopTime="0.00" timeLoss="82.60" rerouteNo="0" devices="tripinfo_randUni359:1" vType="passenger1" speedFactor="1.15" vaporized=""/>
    <tripinfo id="randUni690:1" depart="922.50" departLane="--30892#20_0" departPos="13.17" departSpeed="0.00" departDelay="0.01" arrival="951.30" arrivalLane="-31320#2_0" arrivalPos="80.54" arrivalSpeed="1.05" duration="28.80" routeLength="311.48" waitingTime="0.00" waitingCount="0" stopTime="0.00" timeLoss="8.30" rerouteNo="0" devices="tripinfo_randUni690:1" vType="passenger2a" speedFactor="1.04" vaporized=""/>
    <tripinfo id="randUni1008:1" depart="764.00" departLane="-31858#0_0" departPos="113.49" departSpeed="0.00" departDelay="0.00" arrival="967.50" arrivalLane="-30892#20_0" arrivalPos="18.27" arrivalSpeed="0.77" duration="203.50" routeLength="2135.41" waitingTime="45.30" waitingCount="1" stopTime="0.00" timeLoss="60.06" rerouteNo="0" devices="tripinfo_randUni1008:1" vType="passenger1" speedFactor="1.01" vaporized=""/>
    <tripinfo id="randUni11238:1" depart="903.00" departLane="-31056#3_0" departPos="27.70" departSpeed="0.00" departDelay="0.00" arrival="968.60" arrivalLane="-30944_1" arrivalPos="2.29" arrivalSpeed="0.81" duration="65.60" routeLength="314.44" waitingTime="32.60" waitingCount="1" stopTime="0.00" timeLoss="43.42" rerouteNo="0" devices="tripinfo_randUni11238:1" vType="passenger2a" speedFactor="0.96" vaporized=""/>
    <tripinfo id="randUni15119:1" depart="822.70" departLane="--32664#0_0" departPos="49.10" departSpeed="0.00" departDelay="0.08" arrival="980.40" arrivalLane="-30892#19_0" arrivalPos="50.00" arrivalSpeed="0.81" duration="157.70" routeLength="1932.76" waitingTime="13.30" waitingCount="1" stopTime="0.00" timeLoss="26.78" rerouteNo="0" devices="tripinfo_randUni15119:1" vType="passenger2a" speedFactor="0.99" vaporized=""/>
    <tripinfo id="randUni14249:1" depart="640.40" departLane="-31496#9_0" departPos="159.66" departSpeed="0.00" departDelay="0.00" arrival="985.00" arrivalLane="--31812_0" arrivalPos="66.88" arrivalSpeed="1.01" duration="344.60" routeLength="2630.42" waitingTime="100.00" waitingCount="4" stopTime="0.00" timeLoss="127.58" rerouteNo="0" devices="tripinfo_randUni14249:1" vType="passenger2b" speedFactor="0.87" vaporized=""/>
    <tripinfo id="randUni17263:1" depart="749.50" departLane="-31834#2_0" departPos="35.09" departSpeed="0.00" departDelay="0.08" arrival="989.20" arrivalLane="-31668#1_0" arrivalPos="8.69" arrivalSpeed="0.79" duration="239.70" routeLength="2004.79" waitingTime="90.60" waitingCount="3" stopTime="0.00" timeLoss="118.00" rerouteNo="0" devices="tripinfo_randUni17263:1" vType="passenger4" speedFactor="1.18" vaporized=""/>
    <tripinfo id="randUni19588:1" depart="946.60" departLane="-32924#7_0" departPos="16.28" departSpeed="0.00" departDelay="0.00" arrival="991.40" arrivalLane="-32924#11_0" arrivalPos="27.66" arrivalSpeed="0.89" duration="44.80" routeLength="423.25" waitingTime="4.80" waitingCount="1" stopTime="0.00" timeLoss="16.80" rerouteNo="0" devices="tripinfo_randUni19588:1" vType="passenger1" speedFactor="1.09" vaporized=""/>
    <tripinfo id="randUni18216:1" depart="907.00" departLane="-31940#3_0" departPos="198.75" departSpeed="0.00" departDelay="0.00" arrival="991.90" arrivalLane="-31668#1_0" arrivalPos="2.72" arrivalSpeed="0.81" duration="84.90" routeLength="731.29" waitingTime="21.30" waitingCount="1" stopTime="0.00" timeLoss="36.69" rerouteNo="0" devices="tripinfo_randUni18216:1" vType="passenger1" speedFactor="1.09" vaporized=""/>
    <tripinfo id="randUni18347:1" depart="655.10" departLane="--30892#19_0" departPos="69.30" departSpeed="0.00" departDelay="0.08" arrival="1013.10" arrivalLane="--31952#17_0" arrivalPos="389.09" arrivalSpeed="0.82" duration="358.00" routeLength="2515.24" waitingTime="126.80" waitingCount="5" stopTime="0.00" timeLoss="160.57" rerouteNo="0" devices="tripinfo_randUni18347:1" vType="passenger1" speedFactor="0.92" vaporized=""/>
    <tripinfo id="randUni8394:1" depart="770.00" departLane="--31930#0_0" departPos="8.48" departSpeed="0.00" departDelay="0.00" arrival="1014.40" arrivalLane="-32750#10_2" arrivalPos="6.18" arrivalSpeed="1.17" duration="244.40" routeLength="2215.42" waitingTime="81.50" waitingCount="2" stopTime="0.00" timeLoss="108.29" rerouteNo="0" devices="tripinfo_randUni8394:1" vType="passenger1" speedFactor="1.17" vaporized=""/>
    <tripinfo id="randUni8362:1" depart="836.00" departLane="--30418#3_0" departPos="8.19" departSpeed="0.00" departDelay="0.00" arrival="1024.50" arrivalLane="-31668#1_0" arrivalPos="10.88" arrivalSpeed="0.75" duration="188.50" routeLength="2384.25" waitingTime="1.60" waitingCount="1" stopTime="0.00" timeLoss="20.17" rerouteNo="0" devices="tripinfo_randUni8362:1" vType="passenger2b" speedFactor="1.02" vaporized=""/>
    <tripinfo id="randUni13004:1" depart="872.20" departLane="--31844#3_0" departPos="185.06" departSpeed="0.00" departDelay="0.06" arrival="1040.20" arrivalLane="-30944_0" arrivalPos="9.51" arrivalSpeed="0.91" duration="168.00" routeLength="2162.57" waitingTime="8.10" waitingCount="1" stopTime="0.00" timeLoss="33.18" rerouteNo="0" devices="tripinfo_randUni13004:1" vType="passenger2a" speedFactor="1.10" vaporized=""/>
    <tripinfo id="randUni17885:1" depart="882.00" departLane="-32270#3_0" departPos="32.63" departSpeed="0.00" departDelay="0.00" arrival="1040.80" arrivalLane="-30944_1" arrivalPos="18.66" arrivalSpeed="0.92" duration="158.80" routeLength="1875.22" waitingTime="3.40" waitingCount="1" stopTime="0.00" timeLoss="21.27" rerouteNo="0" devices="tripinfo_randUni17885:1" vType="passenger3" speedFactor="0.90" vaporized=""/>
    <tripinfo id="randUni5421:1" depart="860.70" departLane="--32664#0_0" departPos="22.20" departSpeed="0.00" departDelay="0.01" arrival="1049.10" arrivalLane="-30892#20_0" arrivalPos="13.42" arrivalSpeed="0.93" duration="188.40" routeLength="1998.29" waitingTime="36.10" waitingCount="1" stopTime="0.00" timeLoss="50.06" rerouteNo="0" devices="tripinfo_randUni5421:1" vType="passenger2b" speedFactor="0.97" vaporized=""/>
    <tripinfo id="randUni9586:1" depart="971.00" departLane="-30842#1_0" departPos="18.22" departSpeed="0.00" departDelay="0.00" arrival="1060.20" arrivalLane="-31920_0" arrivalPos="5.69" arrivalSpeed="0.81" duration="89.20" routeLength="406.26" waitingTime="45.40" waitingCount="2" stopTime="0.00" timeLoss="59.88" rerouteNo="0" devices="tripinfo_randUni9586:1" vType="passenger1" speedFactor="1.00" vaporized=""/>
    <tripinfo id="randUni7419:1" depart="862.00" departLane="--31744#3_0" departPos="28.06" departSpeed="0.00" departDelay="0.00" arrival="1081.80" arrivalLane="-30892#20_0" arrivalPos="0.63" arrivalSpeed="1.06" duration="219.80" routeLength="1798.61" waitingTime="76.80" waitingCount="4" stopTime="0.00" timeLoss="110.04" rerouteNo="0" devices="tripinfo_randUni7419:1" vType="passenger1" speedFactor="1.18" vaporized=""/>
    <tripinfo id="randUni13869:1" depart="1072.00" departLane="--32776#3_0" departPos="194.63" departSpeed="0.00" departDelay="0.00" arrival="1086.70" arrivalLane="-31668#1_0" arrivalPos="5.35" arrivalSpeed="0.92" duration="14.70" routeLength="145.36" waitingTime="0.00" waitingCount="0" stopTime="0.00" timeLoss="5.15" rerouteNo="0" devices="tripinfo_randUni13869:1" vType="passenger1" speedFactor="1.10" vaporized=""/>
    <tripinfo id="randUni16430:1" depart="900.60" departLane="--32664#0_0" departPos="47.07" departSpeed="0.00" departDelay="0.09" arrival="1095.30" arrivalLane="-31602#0_0" arrivalPos="129.42" arrivalSpeed="1.01" duration="194.70" routeLength="1892.34" waitingTime="46.60" waitingCount="1" stopTime="0.00" timeLoss="68.30" rerouteNo="0" devices="tripinfo_randUni16430:1" vType="passenger1" speedFactor="1.03" vaporized=""/>
    <tripinfo id="randUni12373:1" depart="997.00" departLane="--31152#0_0" departPos="330.70" departSpeed="0.00" departDelay="0.00" arrival="1117.60" arrivalLane="-30384#5_1" arrivalPos="82.05" arrivalSpeed="0.96" duration="120.60" routeLength="1387.08" waitingTime="0.00" waitingCount="0" stopTime="0.00" timeLoss="13.11" rerouteNo="0" devices="tripinfo_randUni12373:1" vType="passenger2b" speedFactor="0.90" vaporized=""/>
    <tripinfo id="randUni11598:1" depart="1124.70" departLane="-31144#0_0" departPos="34.44" departSpeed="0.00" departDelay="0.08" arrival="1173.00" arrivalLane="-31470#1_0" arrivalPos="36.60" arrivalSpeed="1.12" duration="48.30" routeLength="531.45" waitingTime="0.00" waitingCount="0" stopTime="0.00" timeLoss="7.15" rerouteNo="0" devices="tripinfo_randUni11598:1" vType="passenger2a" speedFactor="0.90" vaporized=""/>
    <tripinfo id="randUni8158:1" depart="1048.00" departLane="-32406#1_0" departPos="63.29" departSpeed="0.00" departDelay="0.00" arrival="1196.60" arrivalLane="--31834#2_0" arrivalPos="43.63" arrivalSpeed="0.98" duration="148.60" routeLength="1453.64" waitingTime="33.20" waitingCount="1" stopTime="0.00" timeLoss="46.92" rerouteNo="0" devices="tripinfo_randUni8158:1" vType="passenger1" speedFactor="1.02" vaporized=""/>
    <tripinfo id="AVL---_CN_1_1" depart="1168.50" departLane="-31272#5_0" departPos="0.00" departSpeed="0.00" departDelay="0.02" arrival="1293.50" arrivalLane="-31272#8_0" arrivalPos="300.37" arrivalSpeed="15.08" duration="125.00" routeLength="928.32" waitingTime="54.20" waitingCount="1" stopTime="0.00" timeLoss="63.67" rerouteNo="0" devices="tripinfo_AVL---_CN_1_1" vType="bus" speedFactor="1.09" vaporized=""/>
    <tripinfo id="randUni2643:1" depart="1119.70" departLane="--31844#3_0" departPos="80.80" departSpeed="0.00" departDelay="0.02" arrival="1306.70" arrivalLane="-32750#10_2" arrivalPos="64.21" arrivalSpeed="0.89" duration="187.00" routeLength="1726.82" waitingTime="46.00" waitingCount="2" stopTime="0.00" timeLoss="62.18" rerouteNo="0" devices="tripinfo_randUni2643:1" vType="passenger2a" speedFactor="1.00" vaporized=""/>
    <tripinfo id="randUni10432:1" depart="999.50" departLane="-31834#2_0" departPos="1.44" departSpeed="0.00" departDelay="0.03" arrival="1310.20" arrivalLane="-31668#1_0" arrivalPos="3.15" arrivalSpeed="1.00" duration="310.70" routeLength="2073.03" waitingTime="121.90" waitingCount="2" stopTime="0.00" timeLoss="142.32" rerouteNo="0" devices="tripinfo_randUni10432:1" vType="passenger5" speedFactor="0.88" vaporized=""/>
    <tripinfo id="randUni6055:1" depart="1286.40" departLane="--30892#19_0" departPos="50.05" departSpeed="0.00" departDelay="0.09" arrival="1332.90" arrivalLane="-31320#2_0" arrivalPos="200.40" arrivalSpeed="0.93" duration="46.50" routeLength="348.90" waitingTime="13.60" waitingCount="1" stopTime="0.00" timeLoss="24.05" rerouteNo="0" devices="tripinfo_randUni6055:1" vType="passenger1" speedFactor="0.99" vaporized=""/>
    <tripinfo id="randUni13490:1" depart="1046.90" departLane="-31272#6_0" departPos="24.35" departSpeed="0.00" departDelay="0.05" arrival="1347.40" arrivalLane="--31342#2_0" arrivalPos="2.15" arrivalSpeed="0.78" duration="300.50" routeLength="2087.41" waitingTime="106.00" waitingCount="2" stopTime="0.00" timeLoss="124.71" rerouteNo="0" devices="tripinfo_randUni13490:1" vType="passenger4" speedFactor="0.85" vaporized=""/>
    <tripinfo id="randUni15016:1" depart="921.20" departLane="--30892#20_0" departPos="18.58" departSpeed="0.00" departDelay="0.07" arrival="1367.10" arrivalLane="--31496#9_0" arrivalPos="233.02" arrivalSpeed="0.71" duration="445.90" routeLength="2748.91" waitingTime="210.60" waitingCount="6" stopTime="0.00" timeLoss="255.21" rerouteNo="0" devices="tripinfo_randUni15016:1" vType="passenger2b" speedFactor="1.04" vaporized=""/>
    <tripinfo id="randUni20642:1" depart="1274.50" departLane="-31952#17_0" departPos="16.81" departSpeed="0.00" departDelay="0.07" arrival="1379.90" arrivalLane="--31610#1_1" arrivalPos="6.92" arrivalSpeed="1.06" duration="105.40" routeLength="1461.78" waitingTime="0.00" waitingCount="0" stopTime="0.00" timeLoss="11.38" rerouteNo="0" devices="tripinfo_randUni20642:1" vType="passenger1" speedFactor="1.12" vaporized=""/>
    <tripinfo id="randUni3471:1" depart="1249.00" departLane="-31118#2_0" departPos="36.60" departSpeed="0.00" departDelay="0.00" arrival="1408.90" arrivalLane="-31320#2_1" arrivalPos="224.22" arrivalSpeed="1.13" duration="159.90" routeLength="2298.91" waitingTime="0.00" waitingCount="0" stopTime="0.00" timeLoss="16.81" rerouteNo="0" devices="tripinfo_randUni3471:1" vType="passenger5" speedFactor="1.08" vaporized=""/>
    <tripinfo id="randUni9974:1" depart="1234.00" departLane="--32924#10_0" departPos="9.99" departSpeed="0.00" departDelay="0.00" arrival="1437.60" arrivalLane="-30892#20_0" arrivalPos="10.26" arrivalSpeed="0.76" duration="203.60" routeLength="1646.86" waitingTime="62.60" waitingCount="2" stopTime="0.00" timeLoss="81.31" rerouteNo="0" devices="tripinfo_randUni9974:1" vType="passenger2b" speedFactor="0.97" vaporized=""/>
    <tripinfo id="randUni1444:1" depart="1014.50" departLane="--30892#20_0" departPos="6.81" departSpeed="0.00" departDelay="0.01" arrival="1439.20" arrivalLane="--30566#1_0" arrivalPos="18.04" arrivalSpeed="0.98" duration="424.70" routeLength="3406.49" waitingTime="115.50" waitingCount="4" stopTime="0.00" timeLoss="140.18" rerouteNo="0" devices="tripinfo_randUni1444:1" vType="passenger2a" speedFactor="0.85" vaporized=""/>
    <tripinfo id="randUni10147:1" depart="1174.40" departLane="--31986_0" departPos="47.47" departSpeed="0.00" departDelay="0.06" arrival="1444.40" arrivalLane="--30566#1_0" arrivalPos="42.45" arrivalSpeed="0.82" duration="270.00" routeLength="2607.97" waitingTime="46.00" waitingCount="4" stopTime="0.00" timeLoss="105.66" rerouteNo="0" devices="tripinfo_randUni10147:1" vType="passenger2a" speedFactor="1.14" vaporized=""/>
    <tripinfo id="randUni1291:1" depart="1047.00" departLane="-32428#1_0" departPos="18.96" departSpeed="0.00" departDelay="0.06" arrival="1462.70" arrivalLane="--32458#1_0" arrivalPos="3.60" arrivalSpeed="1.14" duration="415.70" routeLength="3873.97" waitingTime="125.20" waitingCount="4" stopTime="0.00" timeLoss="177.10" rerouteNo="0" devices="tripinfo_randUni1291:1" vType="passenger4" speedFactor="1.17" vaporized=""/>
    <tripinfo id="randUni2738:1" depart="1276.30" departLane="-31272#5_0" departPos="23.08" departSpeed="0.00" departDelay="0.05" arrival="1475.00" arrivalLane="--31718#3_0" arrivalPos="33.14" arrivalSpeed="0.98" duration="198.70" routeLength="2062.02" waitingTime="21.00" waitingCount="2" stopTime="0.00" timeLoss="52.56" rerouteNo="0" devices="tripinfo_randUni2738:1" vType="passenger5" speedFactor="1.02" vaporized=""/>
    <tripinfo id="randUni16751:1" depart="1176.50" departLane="-30802#1_0" departPos="37.86" departSpeed="0.00" departDelay="0.09" arrival="1494.00" arrivalLane="-30892#20_0" arrivalPos="16.00" arrivalSpeed="0.83" duration="317.50" routeLength="3341.14" waitingTime="44.90" waitingCount="3" stopTime="0.00" timeLoss="82.51" rerouteNo="0" devices="tripinfo_randUni16751:1" vType="passenger4" speedFactor="1.02" vaporized=""/>
    <tripinfo id="randUni14211:1" depart="1295.40" departLane="-30962#0_0" departPos="26.79" departSpeed="0.00" departDelay="0.07" arrival="1528.80" arrivalLane="--31342#3_0" arrivalPos="13.31" arrivalSpeed="0.75" duration="233.40" routeLength="2406.06" waitingTime="30.00" waitingCount="2" stopTime="0.00" timeLoss="48.65" rerouteNo="0" devices="tripinfo_randUni14211:1" vType="passenger2a" speedFactor="0.94" vaporized=""/>
    <tripinfo id="randUni7689:1" depart="1458.00" departLane="-32454#1-AddedOffRampEdge_0" departPos="63.64" departSpeed="0.00" departDelay="0.05" arrival="1543.90" arrivalLane="--32064#0_0" arrivalPos="73.87" arrivalSpeed="1.10" duration="85.90" routeLength="1286.46" waitingTime="0.00" waitingCount="0" stopTime="0.00" timeLoss="11.36" rerouteNo="0" devices="tripinfo_randUni7689:1" vType="passenger2b" speedFactor="1.02" vaporized=""/>
    <tripinfo id="randUni15024:1" depart="1483.10" departLane="-32458#1_0" departPos="42.51" departSpeed="0.00" departDelay="0.01" arrival="1552.30" arrivalLane="--31834#2_1" arrivalPos="29.01" arrivalSpeed="0.79" duration="69.20" routeLength="847.19" waitingTime="0.00" waitingCount="0" stopTime="0.00" timeLoss="7.55" rerouteNo="0" devices="tripinfo_randUni15024:1" vType="passenger2a" speedFactor="0.97" vaporized=""/>
    <tripinfo id="randUni19097:1" depart="1327.00" departLane="--31458#2_0" departPos="42.27" departSpeed="0.00" departDelay="0.00" arrival="1579.00" arrivalLane="-31320#2_1" arrivalPos="182.75" arrivalSpeed="0.80" duration="252.00" routeLength="2069.88" waitingTime="64.20" waitingCount="3" stopTime="0.00" timeLoss="86.24" rerouteNo="0" devices="tripinfo_randUni19097:1" vType="passenger1" speedFactor="0.88" vaporized=""/>
    <tripinfo id="randUni17833:1" depart="1462.00" departLane="--32976_0" departPos="52.18" departSpeed="0.00" departDelay="0.00" arrival="1638.00" arrivalLane="-30892#20_0" arrivalPos="8.36" arrivalSpeed="0.95" duration="176.00" routeLength="2332.98" waitingTime="1.10" waitingCount="1" stopTime="0.00" timeLoss="18.97" rerouteNo="0" devices="tripinfo_randUni17833:1" vType="passenger2a" speedFactor="1.02" vaporized=""/>