<?xml version="1.0" encoding="UTF-8"?>

<!-- generated on 2023-01-27 16:58:27 by Eclipse SUMO GUI Version 1.15.0
<configuration xmlns:xsi="http://www.w3.org/2001/XMLSchema-instance" xsi:noNamespaceSchemaLocation="http://sumo.dlr.de/xsd/sumoConfiguration.xsd">

    <input>
        <net-file value="/home/jiahao/f2md_on_artery/scenarios/mini_LuST/lust.net.xml"/>
        <route-files value="/home/jiahao/f2md_on_artery/scenarios/mini_LuST/buslines.rou.xml,/home/jiahao/f2md_on_artery/scenarios/mini_LuST/DUARoutes/local.0.rou.xml,/home/jiahao/f2md_on_artery/scenarios/mini_LuST/DUARoutes/local.1.rou.xml,/home/jiahao/f2md_on_artery/scenarios/mini_LuST/DUARoutes/local.2.rou.xml,/home/jiahao/f2md_on_artery/scenarios/mini_LuST/transit.rou.xml"/>
        <additional-files value="/home/jiahao/f2md_on_artery/scenarios/mini_LuST/vtypes.add.xml,/home/jiahao/f2md_on_artery/scenarios/mini_LuST/busstops.add.xml,/home/jiahao/f2md_on_artery/scenarios/mini_LuST/e1detectors.add.xml,/home/jiahao/f2md_on_artery/scenarios/mini_LuST/lust.poly.xml"/>
    </input>

    <output>
        <summary-output value="/home/jiahao/f2md_on_artery/scenarios/mini_LuST/dua.actuated.summary.xml"/>
        <tripinfo-output value="/home/jiahao/f2md_on_artery/scenarios/mini_LuST/dua.actuated.tripinfo.xml"/>
    </output>

    <time>
        <step-length value="1"/>
    </time>

    <processing>
        <ignore-junction-blocker value="20"/>
        <time-to-teleport value="600"/>
        <max-depart-delay value="600"/>
    </processing>

    <routing>
        <routing-algorithm value="dijkstra"/>
        <device.rerouting.probability value="0.70"/>
        <device.rerouting.period value="300"/>
        <device.rerouting.pre-period value="300"/>
    </routing>

    <report>
        <verbose value="true"/>
        <log value="/home/jiahao/f2md_on_artery/scenarios/mini_LuST/dua.actuated.log"/>
    </report>

</configuration>
-->

<tripinfos xmlns:xsi="http://www.w3.org/2001/XMLSchema-instance" xsi:noNamespaceSchemaLocation="http://sumo.dlr.de/xsd/tripinfo_file.xsd">
</tripinfos>
