<?xml version="1.0" encoding="UTF-8"?>

<!-- generated on 2023-01-30 15:05:07 by Eclipse SUMO sumo Version 1.15.0
<configuration xmlns:xsi="http://www.w3.org/2001/XMLSchema-instance" xsi:noNamespaceSchemaLocation="http://sumo.dlr.de/xsd/sumoConfiguration.xsd">

    <input>
        <net-file value="lust.net.xml"/>
        <route-files value="buslines.rou.xml,DUARoutes/local.0.rou.xml,DUARoutes/local.1.rou.xml,DUARoutes/local.2.rou.xml,transit.rou.xml"/>
        <additional-files value="vtypes.add.xml,busstops.add.xml,e1detectors.add.xml,lust.poly.xml,tll.static.xml"/>
    </input>

    <output>
        <summary-output value="dua.static.summary.xml"/>
        <tripinfo-output value="dua.static.tripinfo.xml"/>
    </output>

    <time>
        <begin value="0"/>
        <step-length value="1"/>
    </time>

    <processing>
        <ignore-junction-blocker value="20"/>
        <time-to-teleport value="600"/>
        <max-depart-delay value="600"/>
    </processing>

    <routing>
        <routing-algorithm value="dijkstra"/>
        <device.rerouting.probability value="0.70"/>
        <device.rerouting.period value="300"/>
        <device.rerouting.pre-period value="300"/>
    </routing>

    <report>
        <verbose value="true"/>
        <log value="dua.static.log"/>
        <message-log value="results/sumo-0.log"/>
        <no-step-log value="true"/>
    </report>

    <traci_server>
        <remote-port value="53871"/>
    </traci_server>

    <random_number>
        <seed value="23423"/>
    </random_number>

    <gui_only>
        <quit-on-end value="true"/>
    </gui_only>

</configuration>
-->

<tripinfos xmlns:xsi="http://www.w3.org/2001/XMLSchema-instance" xsi:noNamespaceSchemaLocation="http://sumo.dlr.de/xsd/tripinfo_file.xsd">
    <tripinfo id="randUni834:1" depart="5.00" departLane="--32406#3_0" departPos="60.77" departSpeed="0.00" departDelay="0.00" arrival="36.00" arrivalLane="--31212_0" arrivalPos="75.07" arrivalSpeed="0.15" duration="31.00" routeLength="342.70" waitingTime="0.00" waitingCount="0" stopTime="0.00" timeLoss="6.59" rerouteNo="0" devices="tripinfo_randUni834:1 routing_randUni834:1" vType="passenger2b" speedFactor="1.01" vaporized=""/>
    <tripinfo id="randUni16882:1" depart="14.00" departLane="-32340#7_0" departPos="176.31" departSpeed="0.00" departDelay="0.00" arrival="105.00" arrivalLane="-32660_0" arrivalPos="5.02" arrivalSpeed="0.50" duration="91.00" routeLength="1081.02" waitingTime="0.00" waitingCount="0" stopTime="0.00" timeLoss="13.96" rerouteNo="0" devices="tripinfo_randUni16882:1 routing_randUni16882:1" vType="passenger1" speedFactor="1.01" vaporized=""/>
    <tripinfo id="randUni11317:1" depart="11.00" departLane="--31490_0" departPos="43.97" departSpeed="0.00" departDelay="0.00" arrival="184.00" arrivalLane="-31290#1_0" arrivalPos="1.61" arrivalSpeed="0.23" duration="173.00" routeLength="1632.98" waitingTime="42.00" waitingCount="1" stopTime="0.00" timeLoss="72.39" rerouteNo="1" devices="tripinfo_randUni11317:1 routing_randUni11317:1" vType="passenger2a" speedFactor="1.16" vaporized=""/>
    <tripinfo id="NBSKMS_Nightbus_0" depart="39.00" departLane="-32278#1_0" departPos="0.00" departSpeed="0.00" departDelay="0.00" arrival="272.00" arrivalLane="-32278#5_0" arrivalPos="841.44" arrivalSpeed="13.94" duration="233.00" routeLength="1905.19" waitingTime="9.00" waitingCount="1" stopTime="60.00" timeLoss="41.32" rerouteNo="0" devices="tripinfo_NBSKMS_Nightbus_0" vType="bus" speedFactor="1.05" vaporized=""/>
    <tripinfo id="0FRtoLU.0" depart="42.00" departLane="-32426#0_0" departPos="5.10" departSpeed="13.89" departDelay="0.00" arrival="287.00" arrivalLane="-32400#5_0" arrivalPos="257.03" arrivalSpeed="37.28" duration="245.00" routeLength="6507.94" waitingTime="0.00" waitingCount="0" stopTime="0.00" timeLoss="14.55" rerouteNo="0" devices="tripinfo_0FRtoLU.0 routing_0FRtoLU.0" vType="passenger1" speedFactor="1.04" vaporized=""/>
    <tripinfo id="NBSKMS_Nightbus_1" depart="39.00" departLane="--32278#5_0" departPos="0.00" departSpeed="0.00" departDelay="0.00" arrival="308.00" arrivalLane="--32278#1_0" arrivalPos="139.07" arrivalSpeed="14.57" duration="269.00" routeLength="1910.02" waitingTime="51.00" waitingCount="2" stopTime="60.00" timeLoss="86.06" rerouteNo="0" devices="tripinfo_NBSKMS_Nightbus_1" vType="bus" speedFactor="1.12" vaporized=""/>
    <tripinfo id="randUni13606:1" depart="27.00" departLane="--32244_0" departPos="235.15" departSpeed="0.00" departDelay="0.00" arrival="334.00" arrivalLane="-31068#1_0" arrivalPos="104.52" arrivalSpeed="0.17" duration="307.00" routeLength="2599.27" waitingTime="65.00" waitingCount="3" stopTime="0.00" timeLoss="101.05" rerouteNo="0" devices="tripinfo_randUni13606:1 routing_randUni13606:1" vType="passenger4" speedFactor="0.89" vaporized=""/>
    <tripinfo id="0FRtoLU.1" depart="63.00" departLane="-32426#0_0" departPos="5.10" departSpeed="13.89" departDelay="0.00" arrival="346.00" arrivalLane="-32400#5_0" arrivalPos="257.03" arrivalSpeed="32.01" duration="283.00" routeLength="6507.94" waitingTime="0.00" waitingCount="0" stopTime="0.00" timeLoss="15.40" rerouteNo="0" devices="tripinfo_0FRtoLU.1" vType="passenger1" speedFactor="0.90" vaporized=""/>
    <tripinfo id="0FRtoLU.2" depart="119.00" departLane="-32426#0_0" departPos="6.10" departSpeed="13.89" departDelay="0.00" arrival="347.00" arrivalLane="-32400#5_0" arrivalPos="257.03" arrivalSpeed="33.95" duration="228.00" routeLength="6506.94" waitingTime="0.00" waitingCount="0" stopTime="0.00" timeLoss="22.49" rerouteNo="0" devices="tripinfo_0FRtoLU.2 routing_0FRtoLU.2" vType="passenger3" speedFactor="1.17" vaporized=""/>
    <tripinfo id="randUni3742:1" depart="283.00" departLane="--32124#1_0" departPos="216.04" departSpeed="0.00" departDelay="0.00" arrival="368.00" arrivalLane="--31894#2_0" arrivalPos="10.99" arrivalSpeed="0.19" duration="85.00" routeLength="270.89" waitingTime="53.00" waitingCount="1" stopTime="0.00" timeLoss="65.67" rerouteNo="0" devices="tripinfo_randUni3742:1 routing_randUni3742:1" vType="passenger2a" speedFactor="0.94" vaporized=""/>
    <tripinfo id="0DEtoLU.0" depart="15.00" departLane="-31622#0_0" departPos="4.60" departSpeed="13.89" departDelay="0.00" arrival="370.00" arrivalLane="-32400#5_1" arrivalPos="257.03" arrivalSpeed="36.69" duration="355.00" routeLength="11354.22" waitingTime="0.00" waitingCount="0" stopTime="0.00" timeLoss="14.46" rerouteNo="0" devices="tripinfo_0DEtoLU.0 routing_0DEtoLU.0" vType="passenger2a" speedFactor="1.04" vaporized=""/>
    <tripinfo id="0LUtoDE.0" depart="45.00" departLane="-30706#0_0" departPos="5.10" departSpeed="13.89" departDelay="0.00" arrival="380.00" arrivalLane="-30668#16_1" arrivalPos="272.49" arrivalSpeed="35.64" duration="335.00" routeLength="10511.80" waitingTime="0.00" waitingCount="0" stopTime="0.00" timeLoss="12.80" rerouteNo="0" devices="tripinfo_0LUtoDE.0 routing_0LUtoDE.0" vType="passenger1" speedFactor="1.00" vaporized=""/>
    <tripinfo id="0DEtoLU.1" depart="43.00" departLane="-31622#0_0" departPos="6.10" departSpeed="13.89" departDelay="0.00" arrival="381.00" arrivalLane="-32400#5_1" arrivalPos="257.03" arrivalSpeed="38.37" duration="338.00" routeLength="11352.72" waitingTime="0.00" waitingCount="0" stopTime="0.00" timeLoss="13.34" rerouteNo="0" devices="tripinfo_0DEtoLU.1 routing_0DEtoLU.1" vType="passenger3" speedFactor="1.09" vaporized=""/>
    <tripinfo id="0FRtoLU.3" depart="129.00" departLane="-32426#0_0" departPos="5.10" departSpeed="13.89" departDelay="0.00" arrival="383.00" arrivalLane="-32400#5_0" arrivalPos="257.03" arrivalSpeed="35.44" duration="254.00" routeLength="6507.94" waitingTime="0.00" waitingCount="0" stopTime="0.00" timeLoss="14.30" rerouteNo="0" devices="tripinfo_0FRtoLU.3" vType="passenger1" speedFactor="1.00" vaporized=""/>
    <tripinfo id="randUni19500:1" depart="198.00" departLane="-31230#5_0" departPos="24.53" departSpeed="0.00" departDelay="0.00" arrival="386.00" arrivalLane="--30968#1_0" arrivalPos="19.30" arrivalSpeed="0.11" duration="188.00" routeLength="2094.54" waitingTime="15.00" waitingCount="2" stopTime="0.00" timeLoss="52.47" rerouteNo="1" devices="tripinfo_randUni19500:1 routing_randUni19500:1" vType="passenger2b" speedFactor="1.10" vaporized=""/>
    <tripinfo id="0BEtoFR.1" depart="145.00" departLane="-30668#0_0" departPos="4.60" departSpeed="13.89" departDelay="0.00" arrival="400.00" arrivalLane="-31366#3_2" arrivalPos="20.69" arrivalSpeed="40.80" duration="255.00" routeLength="9435.52" waitingTime="0.00" waitingCount="0" stopTime="0.00" timeLoss="11.09" rerouteNo="0" devices="tripinfo_0BEtoFR.1 routing_0BEtoFR.1" vType="passenger2a" speedFactor="1.14" vaporized=""/>
    <tripinfo id="randUni18368:1" depart="0.00" departLane="-31606#0_0" departPos="177.47" departSpeed="0.00" departDelay="0.00" arrival="404.00" arrivalLane="-30496#4_1" arrivalPos="97.49" arrivalSpeed="0.27" duration="404.00" routeLength="2882.13" waitingTime="140.00" waitingCount="3" stopTime="0.00" timeLoss="184.65" rerouteNo="0" devices="tripinfo_randUni18368:1" vType="passenger2a" speedFactor="0.94" vaporized=""/>
    <tripinfo id="0LUtoBE.0" depart="12.00" departLane="-30706#0_0" departPos="4.60" departSpeed="13.89" departDelay="0.00" arrival="417.00" arrivalLane="-31622#16_1" arrivalPos="305.81" arrivalSpeed="33.96" duration="405.00" routeLength="11318.23" waitingTime="0.00" waitingCount="0" stopTime="0.00" timeLoss="18.62" rerouteNo="0" devices="tripinfo_0LUtoBE.0" vType="passenger2a" speedFactor="0.96" vaporized=""/>
    <tripinfo id="randUni10908:1" depart="127.00" departLane="-31302_0" departPos="6.98" departSpeed="0.00" departDelay="0.00" arrival="418.00" arrivalLane="--32160#3_0" arrivalPos="32.43" arrivalSpeed="1.40" duration="291.00" routeLength="3141.93" waitingTime="48.00" waitingCount="3" stopTime="0.00" timeLoss="97.97" rerouteNo="1" devices="tripinfo_randUni10908:1 routing_randUni10908:1" vType="passenger2b" speedFactor="1.17" vaporized=""/>
    <tripinfo id="0LUtoDE.1" depart="122.00" departLane="-30706#0_0" departPos="4.60" departSpeed="13.89" departDelay="0.00" arrival="428.00" arrivalLane="-30668#16_2" arrivalPos="272.49" arrivalSpeed="38.28" duration="306.00" routeLength="10512.30" waitingTime="0.00" waitingCount="0" stopTime="0.00" timeLoss="11.98" rerouteNo="0" devices="tripinfo_0LUtoDE.1" vType="passenger2b" speedFactor="1.10" vaporized=""/>
    <tripinfo id="randUni8397:1" depart="348.00" departLane="--30528#29_0" departPos="4.13" departSpeed="0.00" departDelay="0.00" arrival="437.00" arrivalLane="--30778#0_0" arrivalPos="32.18" arrivalSpeed="0.14" duration="89.00" routeLength="954.10" waitingTime="0.00" waitingCount="0" stopTime="0.00" timeLoss="20.81" rerouteNo="0" devices="tripinfo_randUni8397:1" vType="passenger1" speedFactor="1.01" vaporized=""/>
    <tripinfo id="0BEtoFR.0" depart="96.00" departLane="-30668#0_0" departPos="7.10" departSpeed="13.89" departDelay="0.00" arrival="439.00" arrivalLane="-31366#3_1" arrivalPos="20.69" arrivalSpeed="29.86" duration="343.00" routeLength="9433.02" waitingTime="0.00" waitingCount="0" stopTime="0.00" timeLoss="10.69" rerouteNo="0" devices="tripinfo_0BEtoFR.0 routing_0BEtoFR.0" vType="passenger5" speedFactor="0.88" vaporized=""/>
    <tripinfo id="0FRtoLU.4" depart="192.00" departLane="-32426#0_0" departPos="4.60" departSpeed="13.89" departDelay="0.00" arrival="450.00" arrivalLane="-32400#5_0" arrivalPos="257.03" arrivalSpeed="35.53" duration="258.00" routeLength="6508.44" waitingTime="0.00" waitingCount="0" stopTime="0.00" timeLoss="14.81" rerouteNo="0" devices="tripinfo_0FRtoLU.4 routing_0FRtoLU.4" vType="passenger2a" speedFactor="0.99" vaporized=""/>
    <tripinfo id="0DEtoFR.2" depart="14.00" departLane="-31622#0_0" departPos="5.10" departSpeed="13.89" departDelay="0.00" arrival="458.00" arrivalLane="-31366#3_1" arrivalPos="20.69" arrivalSpeed="38.43" duration="444.00" routeLength="15900.65" waitingTime="0.00" waitingCount="0" stopTime="0.00" timeLoss="15.21" rerouteNo="0" devices="tripinfo_0DEtoFR.2 routing_0DEtoFR.2" vType="passenger1" speedFactor="1.09" vaporized=""/>
    <tripinfo id="0FRtoBE.0" depart="96.00" departLane="-32426#0_0" departPos="4.60" departSpeed="13.89" departDelay="0.00" arrival="464.00" arrivalLane="-31622#16_1" arrivalPos="305.81" arrivalSpeed="29.94" duration="368.00" routeLength="9592.32" waitingTime="0.00" waitingCount="0" stopTime="0.00" timeLoss="16.22" rerouteNo="0" devices="tripinfo_0FRtoBE.0 routing_0FRtoBE.0" vType="passenger2b" speedFactor="0.85" vaporized=""/>
    <tripinfo id="0DEtoFR.1" depart="8.00" departLane="-31622#0_0" departPos="4.60" departSpeed="13.89" departDelay="0.00" arrival="472.00" arrivalLane="-31366#3_1" arrivalPos="20.69" arrivalSpeed="37.36" duration="464.00" routeLength="15901.15" waitingTime="0.00" waitingCount="0" stopTime="0.00" timeLoss="16.17" rerouteNo="0" devices="tripinfo_0DEtoFR.1" vType="passenger2b" speedFactor="1.05" vaporized=""/>
    <tripinfo id="randUni2416:1" depart="301.00" departLane="--32280#0_0" departPos="122.77" departSpeed="0.00" departDelay="0.00" arrival="490.00" arrivalLane="-31904#2_0" arrivalPos="30.50" arrivalSpeed="0.06" duration="189.00" routeLength="1952.97" waitingTime="18.00" waitingCount="3" stopTime="0.00" timeLoss="47.90" rerouteNo="1" devices="tripinfo_randUni2416:1 routing_randUni2416:1" vType="passenger5" speedFactor="0.98" vaporized=""/>
    <tripinfo id="0LUtoDE.2" depart="205.00" departLane="-30706#0_0" departPos="4.60" departSpeed="13.89" departDelay="0.00" arrival="499.00" arrivalLane="-30668#16_2" arrivalPos="272.49" arrivalSpeed="41.07" duration="294.00" routeLength="10512.30" waitingTime="0.00" waitingCount="0" stopTime="0.00" timeLoss="13.55" rerouteNo="0" devices="tripinfo_0LUtoDE.2 routing_0LUtoDE.2" vType="passenger2b" speedFactor="1.15" vaporized=""/>
    <tripinfo id="randUni1024:1" depart="139.00" departLane="-32924#6_0" departPos="8.20" departSpeed="0.00" departDelay="0.00" arrival="500.00" arrivalLane="-32392#1_0" arrivalPos="3.73" arrivalSpeed="0.19" duration="361.00" routeLength="3452.22" waitingTime="96.00" waitingCount="3" stopTime="0.00" timeLoss="131.39" rerouteNo="0" devices="tripinfo_randUni1024:1" vType="passenger2b" speedFactor="0.99" vaporized=""/>
    <tripinfo id="0FRtoBE.1" depart="190.00" departLane="-32426#0_0" departPos="4.60" departSpeed="13.89" departDelay="0.00" arrival="501.00" arrivalLane="-31622#16_2" arrivalPos="305.81" arrivalSpeed="36.51" duration="311.00" routeLength="9592.32" waitingTime="0.00" waitingCount="0" stopTime="0.00" timeLoss="16.25" rerouteNo="0" devices="tripinfo_0FRtoBE.1 routing_0FRtoBE.1" vType="passenger2b" speedFactor="1.02" vaporized=""/>
    <tripinfo id="0BEtoFR.2" depart="215.00" departLane="-30668#0_0" departPos="4.60" departSpeed="13.89" departDelay="0.00" arrival="512.00" arrivalLane="-31366#3_1" arrivalPos="20.69" arrivalSpeed="34.72" duration="297.00" routeLength="9435.52" waitingTime="0.00" waitingCount="0" stopTime="0.00" timeLoss="11.98" rerouteNo="0" devices="tripinfo_0BEtoFR.2 routing_0BEtoFR.2" vType="passenger2b" speedFactor="0.98" vaporized=""/>
    <tripinfo id="randUni20481:1" depart="13.00" departLane="--32468#2_0" departPos="100.51" departSpeed="0.00" departDelay="0.00" arrival="515.00" arrivalLane="-30528#52_0" arrivalPos="3.45" arrivalSpeed="0.12" duration="502.00" routeLength="5230.69" waitingTime="89.00" waitingCount="4" stopTime="0.00" timeLoss="138.23" rerouteNo="1" devices="tripinfo_randUni20481:1 routing_randUni20481:1" vType="passenger1" speedFactor="1.02" vaporized=""/>
    <tripinfo id="0LUtoBE.1" depart="133.00" departLane="-30706#0_0" departPos="5.10" departSpeed="13.89" departDelay="0.00" arrival="522.00" arrivalLane="-31622#16_2" arrivalPos="305.81" arrivalSpeed="35.93" duration="389.00" routeLength="11317.73" waitingTime="0.00" waitingCount="0" stopTime="0.00" timeLoss="17.53" rerouteNo="0" devices="tripinfo_0LUtoBE.1 routing_0LUtoBE.1" vType="passenger1" speedFactor="1.00" vaporized=""/>
    <tripinfo id="0BEtoFR.3" depart="239.00" departLane="-30668#0_0" departPos="4.60" departSpeed="13.89" departDelay="0.00" arrival="526.00" arrivalLane="-31366#3_2" arrivalPos="20.69" arrivalSpeed="36.23" duration="287.00" routeLength="9435.52" waitingTime="0.00" waitingCount="0" stopTime="0.00" timeLoss="12.59" rerouteNo="0" devices="tripinfo_0BEtoFR.3 routing_0BEtoFR.3" vType="passenger2a" speedFactor="1.02" vaporized=""/>
    <tripinfo id="0FRtoLU.5" depart="243.00" departLane="-32426#0_0" departPos="5.10" departSpeed="13.89" departDelay="0.00" arrival="529.00" arrivalLane="-32400#5_0" arrivalPos="257.03" arrivalSpeed="31.27" duration="286.00" routeLength="6507.94" waitingTime="0.00" waitingCount="0" stopTime="0.00" timeLoss="16.49" rerouteNo="0" devices="tripinfo_0FRtoLU.5" vType="passenger1" speedFactor="0.89" vaporized=""/>
    <tripinfo id="0DEtoLU.2" depart="160.00" departLane="-31622#0_0" departPos="5.10" departSpeed="13.89" departDelay="0.00" arrival="542.00" arrivalLane="-32400#5_1" arrivalPos="257.03" arrivalSpeed="33.88" duration="382.00" routeLength="11353.72" waitingTime="0.00" waitingCount="0" stopTime="0.00" timeLoss="17.41" rerouteNo="0" devices="tripinfo_0DEtoLU.2" vType="passenger1" speedFactor="0.97" vaporized=""/>
    <tripinfo id="0FRtoLU.6" depart="272.00" departLane="-32426#0_0" departPos="4.60" departSpeed="13.89" departDelay="0.00" arrival="553.00" arrivalLane="-32400#5_0" arrivalPos="257.03" arrivalSpeed="32.08" duration="281.00" routeLength="6508.44" waitingTime="0.00" waitingCount="0" stopTime="0.00" timeLoss="15.68" rerouteNo="0" devices="tripinfo_0FRtoLU.6" vType="passenger2b" speedFactor="0.91" vaporized=""/>
    <tripinfo id="0LUtoFR.0" depart="235.00" departLane="-30706#0_0" departPos="5.10" departSpeed="13.89" departDelay="0.00" arrival="570.00" arrivalLane="-31366#3_2" arrivalPos="20.69" arrivalSpeed="36.73" duration="335.00" routeLength="8111.00" waitingTime="0.00" waitingCount="0" stopTime="0.00" timeLoss="38.75" rerouteNo="0" devices="tripinfo_0LUtoFR.0" vType="passenger1" speedFactor="1.04" vaporized=""/>
    <tripinfo id="0LUtoFR.1" depart="238.00" departLane="-30706#0_0" departPos="4.60" departSpeed="13.89" departDelay="0.00" arrival="573.00" arrivalLane="-31366#3_2" arrivalPos="20.69" arrivalSpeed="36.87" duration="335.00" routeLength="8111.50" waitingTime="0.00" waitingCount="0" stopTime="0.00" timeLoss="33.00" rerouteNo="0" devices="tripinfo_0LUtoFR.1 routing_0LUtoFR.1" vType="passenger2a" speedFactor="1.02" vaporized=""/>
    <tripinfo id="0FRtoBE.2" depart="267.00" departLane="-32426#0_0" departPos="5.10" departSpeed="13.89" departDelay="0.00" arrival="579.00" arrivalLane="-31622#16_2" arrivalPos="305.81" arrivalSpeed="35.71" duration="312.00" routeLength="9591.82" waitingTime="0.00" waitingCount="0" stopTime="0.00" timeLoss="15.43" rerouteNo="0" devices="tripinfo_0FRtoBE.2 routing_0FRtoBE.2" vType="passenger1" speedFactor="1.01" vaporized=""/>
    <tripinfo id="0DEtoFR.0" depart="0.00" departLane="-31622#0_0" departPos="5.10" departSpeed="13.89" departDelay="0.00" arrival="583.00" arrivalLane="-31366#3_1" arrivalPos="20.69" arrivalSpeed="28.79" duration="583.00" routeLength="15900.65" waitingTime="0.00" waitingCount="0" stopTime="0.00" timeLoss="18.94" rerouteNo="0" devices="tripinfo_0DEtoFR.0 routing_0DEtoFR.0" vType="passenger1" speedFactor="0.83" vaporized=""/>
    <tripinfo id="0LUtoFR.2" depart="289.00" departLane="-30706#0_0" departPos="4.60" departSpeed="13.89" departDelay="0.00" arrival="586.00" arrivalLane="-31366#3_2" arrivalPos="20.69" arrivalSpeed="40.00" duration="297.00" routeLength="8111.50" waitingTime="0.00" waitingCount="0" stopTime="0.00" timeLoss="21.42" rerouteNo="0" devices="tripinfo_0LUtoFR.2 routing_0LUtoFR.2" vType="passenger2a" speedFactor="1.12" vaporized=""/>
    <tripinfo id="0BEtoLU.0" depart="237.00" departLane="-30668#0_0" departPos="5.10" departSpeed="13.89" departDelay="0.00" arrival="590.00" arrivalLane="-32400#5_0" arrivalPos="257.03" arrivalSpeed="35.11" duration="353.00" routeLength="10745.68" waitingTime="0.00" waitingCount="0" stopTime="0.00" timeLoss="13.28" rerouteNo="0" devices="tripinfo_0BEtoLU.0 routing_0BEtoLU.0" vType="passenger1" speedFactor="1.01" vaporized=""/>
    <tripinfo id="0BEtoFR.4" depart="302.00" departLane="-30668#0_0" departPos="5.10" departSpeed="13.89" departDelay="0.00" arrival="605.00" arrivalLane="-31366#3_1" arrivalPos="20.69" arrivalSpeed="34.33" duration="303.00" routeLength="9435.02" waitingTime="0.00" waitingCount="0" stopTime="0.00" timeLoss="11.94" rerouteNo="0" devices="tripinfo_0BEtoFR.4 routing_0BEtoFR.4" vType="passenger1" speedFactor="0.96" vaporized=""/>
    <tripinfo id="randUni5174:1" depart="289.00" departLane="--32388_0" departPos="25.56" departSpeed="0.00" departDelay="0.00" arrival="606.00" arrivalLane="-30398#8_0" arrivalPos="9.74" arrivalSpeed="0.56" duration="317.00" routeLength="2355.51" waitingTime="127.00" waitingCount="3" stopTime="0.00" timeLoss="167.03" rerouteNo="0" devices="tripinfo_randUni5174:1 routing_randUni5174:1" vType="passenger2a" speedFactor="1.06" vaporized=""/>
    <tripinfo id="0DEtoLU.3" depart="265.00" departLane="-31622#0_0" departPos="5.10" departSpeed="13.89" departDelay="0.00" arrival="612.00" arrivalLane="-32400#5_1" arrivalPos="257.03" arrivalSpeed="37.66" duration="347.00" routeLength="11353.72" waitingTime="0.00" waitingCount="0" stopTime="0.00" timeLoss="12.33" rerouteNo="0" devices="tripinfo_0DEtoLU.3" vType="passenger1" speedFactor="1.06" vaporized=""/>
    <tripinfo id="randUni9228:1" depart="392.00" departLane="-31648#0_0" departPos="25.54" departSpeed="0.00" departDelay="0.00" arrival="614.00" arrivalLane="-30608#9_1" arrivalPos="51.04" arrivalSpeed="1.55" duration="222.00" routeLength="1681.37" waitingTime="67.00" waitingCount="2" stopTime="0.00" timeLoss="101.49" rerouteNo="1" devices="tripinfo_randUni9228:1 routing_randUni9228:1" vType="passenger1" speedFactor="1.00" vaporized=""/>
    <tripinfo id="0BEtoLU.2" depart="292.00" departLane="-30668#0_0" departPos="6.10" departSpeed="13.89" departDelay="0.00" arrival="619.00" arrivalLane="-32400#5_0" arrivalPos="257.03" arrivalSpeed="39.37" duration="327.00" routeLength="10744.68" waitingTime="0.00" waitingCount="0" stopTime="0.00" timeLoss="15.14" rerouteNo="0" devices="tripinfo_0BEtoLU.2 routing_0BEtoLU.2" vType="passenger3" speedFactor="1.10" vaporized=""/>
    <tripinfo id="0DEtoFR.4" depart="154.00" departLane="-31622#0_0" departPos="4.60" departSpeed="13.89" departDelay="0.00" arrival="632.00" arrivalLane="-31366#3_1" arrivalPos="20.69" arrivalSpeed="36.43" duration="478.00" routeLength="15901.15" waitingTime="0.00" waitingCount="0" stopTime="0.00" timeLoss="20.14" rerouteNo="0" devices="tripinfo_0DEtoFR.4 routing_0DEtoFR.4" vType="passenger2a" speedFactor="1.02" vaporized=""/>
    <tripinfo id="randUni7357:1" depart="102.00" departLane="-30988#3_0" departPos="92.43" departSpeed="0.00" departDelay="0.00" arrival="637.00" arrivalLane="-32190_0" arrivalPos="380.12" arrivalSpeed="0.53" duration="535.00" routeLength="5235.39" waitingTime="86.00" waitingCount="5" stopTime="0.00" timeLoss="138.88" rerouteNo="0" devices="tripinfo_randUni7357:1 routing_randUni7357:1" vType="passenger1" speedFactor="0.93" vaporized=""/>
    <tripinfo id="0FRtoLU.7" depart="379.00" departLane="-32426#0_0" departPos="7.10" departSpeed="13.89" departDelay="0.00" arrival="641.00" arrivalLane="-32400#5_0" arrivalPos="257.03" arrivalSpeed="29.52" duration="262.00" routeLength="6505.94" waitingTime="0.00" waitingCount="0" stopTime="0.00" timeLoss="10.57" rerouteNo="0" devices="tripinfo_0FRtoLU.7" vType="passenger5" speedFactor="1.10" vaporized=""/>
    <tripinfo id="0LUtoDE.3" depart="303.00" departLane="-30706#0_0" departPos="4.60" departSpeed="13.89" departDelay="0.00" arrival="649.00" arrivalLane="-30668#16_1" arrivalPos="272.49" arrivalSpeed="33.97" duration="346.00" routeLength="10512.30" waitingTime="0.00" waitingCount="0" stopTime="0.00" timeLoss="13.26" rerouteNo="0" devices="tripinfo_0LUtoDE.3" vType="passenger2b" speedFactor="0.97" vaporized=""/>
    <tripinfo id="0FRtoBE.3" depart="344.00" departLane="-32426#0_0" departPos="4.60" departSpeed="13.89" departDelay="0.00" arrival="654.00" arrivalLane="-31622#16_2" arrivalPos="305.81" arrivalSpeed="35.95" duration="310.00" routeLength="9592.32" waitingTime="0.00" waitingCount="0" stopTime="0.00" timeLoss="14.41" rerouteNo="0" devices="tripinfo_0FRtoBE.3 routing_0FRtoBE.3" vType="passenger2a" speedFactor="1.01" vaporized=""/>
    <tripinfo id="0FRtoBE.4" depart="359.00" departLane="-32426#0_0" departPos="5.10" departSpeed="13.89" departDelay="0.00" arrival="657.00" arrivalLane="-31622#16_2" arrivalPos="305.81" arrivalSpeed="37.83" duration="298.00" routeLength="9591.82" waitingTime="0.00" waitingCount="0" stopTime="0.00" timeLoss="17.10" rerouteNo="0" devices="tripinfo_0FRtoBE.4 routing_0FRtoBE.4" vType="passenger1" speedFactor="1.06" vaporized=""/>
    <tripinfo id="randUni18438:1" depart="110.00" departLane="-31146#0_0" departPos="38.98" departSpeed="0.00" departDelay="0.00" arrival="658.00" arrivalLane="-31892#0_0" arrivalPos="25.17" arrivalSpeed="0.38" duration="548.00" routeLength="6561.15" waitingTime="116.00" waitingCount="4" stopTime="0.00" timeLoss="176.60" rerouteNo="1" devices="tripinfo_randUni18438:1 routing_randUni18438:1" vType="passenger1" speedFactor="1.15" vaporized=""/>
    <tripinfo id="0DEtoFR.3" depart="98.00" departLane="-31622#0_0" departPos="5.10" departSpeed="13.89" departDelay="0.00" arrival="663.00" arrivalLane="-31366#3_1" arrivalPos="20.69" arrivalSpeed="29.69" duration="565.00" routeLength="15900.65" waitingTime="0.00" waitingCount="0" stopTime="0.00" timeLoss="17.20" rerouteNo="0" devices="tripinfo_0DEtoFR.3" vType="passenger1" speedFactor="0.85" vaporized=""/>
    <tripinfo id="0LUtoFR.3" depart="315.00" departLane="-30706#0_0" departPos="5.10" departSpeed="13.89" departDelay="0.00" arrival="665.00" arrivalLane="-31366#3_1" arrivalPos="20.69" arrivalSpeed="33.88" duration="350.00" routeLength="8111.00" waitingTime="0.00" waitingCount="0" stopTime="0.00" timeLoss="25.56" rerouteNo="0" devices="tripinfo_0LUtoFR.3 routing_0LUtoFR.3" vType="passenger1" speedFactor="0.95" vaporized=""/>
    <tripinfo id="0DEtoBE.2" depart="183.00" departLane="-31622#0_0" departPos="4.60" departSpeed="13.89" departDelay="0.00" arrival="670.00" arrivalLane="-31622#16_2" arrivalPos="305.81" arrivalSpeed="39.61" duration="487.00" routeLength="19107.88" waitingTime="0.00" waitingCount="0" stopTime="0.00" timeLoss="13.67" rerouteNo="0" devices="tripinfo_0DEtoBE.2 routing_0DEtoBE.2" vType="passenger2a" speedFactor="1.12" vaporized=""/>
    <tripinfo id="0BEtoLU.1" depart="248.00" departLane="-30668#0_0" departPos="5.10" departSpeed="13.89" departDelay="0.00" arrival="674.00" arrivalLane="-32400#5_0" arrivalPos="257.03" arrivalSpeed="28.89" duration="426.00" routeLength="10745.68" waitingTime="0.00" waitingCount="0" stopTime="0.00" timeLoss="15.90" rerouteNo="0" devices="tripinfo_0BEtoLU.1 routing_0BEtoLU.1" vType="passenger1" speedFactor="0.83" vaporized=""/>
    <tripinfo id="0DEtoBE.1" depart="180.00" departLane="-31622#0_0" departPos="5.10" departSpeed="13.89" departDelay="0.00" arrival="682.00" arrivalLane="-31622#16_2" arrivalPos="305.81" arrivalSpeed="37.81" duration="502.00" routeLength="19107.38" waitingTime="0.00" waitingCount="0" stopTime="0.00" timeLoss="12.70" rerouteNo="0" devices="tripinfo_0DEtoBE.1 routing_0DEtoBE.1" vType="passenger1" speedFactor="1.08" vaporized=""/>
    <tripinfo id="0DEtoLU.4" depart="340.00" departLane="-31622#0_0" departPos="6.10" departSpeed="13.89" departDelay="0.00" arrival="683.00" arrivalLane="-32400#5_1" arrivalPos="257.03" arrivalSpeed="38.04" duration="343.00" routeLength="11352.72" waitingTime="0.00" waitingCount="0" stopTime="0.00" timeLoss="13.43" rerouteNo="0" devices="tripinfo_0DEtoLU.4 routing_0DEtoLU.4" vType="passenger3" speedFactor="1.07" vaporized=""/>
    <tripinfo id="0BEtoFR.5" depart="441.00" departLane="-30668#0_0" departPos="6.10" departSpeed="13.89" departDelay="0.00" arrival="692.00" arrivalLane="-31366#3_2" arrivalPos="20.69" arrivalSpeed="40.91" duration="251.00" routeLength="9434.02" waitingTime="0.00" waitingCount="0" stopTime="0.00" timeLoss="11.85" rerouteNo="0" devices="tripinfo_0BEtoFR.5" vType="passenger3" speedFactor="1.16" vaporized=""/>
    <tripinfo id="0FRtoLU.8" depart="405.00" departLane="-32426#0_0" departPos="5.60" departSpeed="13.89" departDelay="0.00" arrival="693.00" arrivalLane="-32400#5_0" arrivalPos="257.03" arrivalSpeed="29.96" duration="288.00" routeLength="6507.44" waitingTime="0.00" waitingCount="0" stopTime="0.00" timeLoss="13.55" rerouteNo="0" devices="tripinfo_0FRtoLU.8 routing_0FRtoLU.8" vType="passenger4" speedFactor="0.92" vaporized=""/>
    <tripinfo id="0FRtoLU.9" depart="470.00" departLane="-32426#0_0" departPos="5.10" departSpeed="13.89" departDelay="0.00" arrival="696.00" arrivalLane="-32400#5_0" arrivalPos="257.03" arrivalSpeed="40.99" duration="226.00" routeLength="6507.94" waitingTime="0.00" waitingCount="0" stopTime="0.00" timeLoss="15.08" rerouteNo="0" devices="tripinfo_0FRtoLU.9" vType="passenger1" speedFactor="1.14" vaporized=""/>
    <tripinfo id="0LUtoDE.4" depart="324.00" departLane="-30706#0_0" departPos="5.10" departSpeed="13.89" departDelay="0.00" arrival="697.00" arrivalLane="-30668#16_1" arrivalPos="272.49" arrivalSpeed="31.33" duration="373.00" routeLength="10511.80" waitingTime="0.00" waitingCount="0" stopTime="0.00" timeLoss="13.09" rerouteNo="0" devices="tripinfo_0LUtoDE.4" vType="passenger1" speedFactor="0.89" vaporized=""/>