<?xml version="1.0" encoding="UTF-8"?>

<!-- generated on 2023-02-08 18:24:13 by Eclipse SUMO sumo Version 1.15.0
<configuration xmlns:xsi="http://www.w3.org/2001/XMLSchema-instance" xsi:noNamespaceSchemaLocation="http://sumo.dlr.de/xsd/sumoConfiguration.xsd">

    <input>
        <net-file value="mini_lust.net.xml"/>
        <route-files value="DUARoutesMini/minilocal.0.rou.xml,DUARoutesMini/minilocal.1.rou.xml,DUARoutesMini/minilocal.2.rou.xml"/>
        <additional-files value="vtypes.add.xml,mini_lust.poly.xml"/>
    </input>

    <output>
        <summary-output value="dua.static.mini.summary.xml"/>
        <edgedata-output value="edgedata.xml"/>
    </output>

    <time>
        <step-length value="1"/>
    </time>

    <processing>
        <ignore-junction-blocker value="20"/>
        <time-to-teleport value="600"/>
        <max-depart-delay value="600"/>
    </processing>

    <routing>
        <routing-algorithm value="dijkstra"/>
        <device.rerouting.probability value="0.70"/>
        <device.rerouting.period value="300"/>
        <device.rerouting.pre-period value="300"/>
    </routing>

    <report>
        <verbose value="true"/>
        <no-warnings value="true"/>
        <log value="dua.static.mini.log"/>
    </report>

</configuration>
-->

<meandata xmlns:xsi="http://www.w3.org/2001/XMLSchema-instance" xsi:noNamespaceSchemaLocation="http://sumo.dlr.de/xsd/meandata_file.xsd">
    <interval begin="0.00" end="87018.00" id="DEFAULT_EDGEDATA">
        <edge id="--30262#1" sampledSeconds="809.52" traveltime="16.36" overlapTraveltime="17.05" density="0.08" laneDensity="0.08" occupancy="0.04" waitingTime="24.00" timeLoss="369.26" speed="7.41" speedRelative="0.53" departed="16" arrived="109" entered="93" left="0" laneChangedFrom="0" laneChangedTo="0"/>
        <edge id="--30262#2" sampledSeconds="670.75" traveltime="11.45" overlapTraveltime="12.15" density="0.07" laneDensity="0.07" occupancy="0.03" waitingTime="0.00" timeLoss="171.99" speed="10.09" speedRelative="0.73" departed="13" arrived="12" entered="54" left="55" laneChangedFrom="0" laneChangedTo="0"/>
        <edge id="--30316" sampledSeconds="17133.47" traveltime="112.84" overlapTraveltime="113.36" density="0.14" laneDensity="0.14" occupancy="0.07" waitingTime="320.00" timeLoss="2176.54" speed="12.06" speedRelative="0.87" departed="19" arrived="279" entered="279" left="19" laneChangedFrom="0" laneChangedTo="0"/>
        <edge id="--30352" sampledSeconds="134.62" traveltime="12.81" overlapTraveltime="13.47" density="0.01" laneDensity="0.01" occupancy="0.01" waitingTime="0.00" timeLoss="47.43" speed="8.90" speedRelative="0.64" departed="3" arrived="8" entered="13" left="8" laneChangedFrom="0" laneChangedTo="0"/>
        <edge id="--30362#0" sampledSeconds="1608.94" traveltime="22.51" overlapTraveltime="23.06" density="0.09" laneDensity="0.04" occupancy="0.02" waitingTime="36.00" timeLoss="530.25" speed="9.19" speedRelative="0.66" departed="27" arrived="149" entered="122" left="0" laneChangedFrom="16" laneChangedTo="16"/>
        <edge id="--30362#1" sampledSeconds="595.31" traveltime="6.57" overlapTraveltime="7.06" density="0.09" laneDensity="0.05" occupancy="0.02" waitingTime="3.00" timeLoss="105.00" speed="11.33" speedRelative="0.82" departed="8" arrived="12" entered="88" left="84" laneChangedFrom="22" laneChangedTo="22"/>
        <edge id="--30418#0" sampledSeconds="409.66" traveltime="13.19" overlapTraveltime="13.75" density="0.05" laneDensity="0.05" occupancy="0.02" waitingTime="11.00" timeLoss="180.33" speed="7.71" speedRelative="0.56" departed="8" arrived="44" entered="47" left="11" laneChangedFrom="0" laneChangedTo="0"/>
        <edge id="--30418#1" sampledSeconds="283.86" traveltime="4.21" overlapTraveltime="4.69" density="0.07" laneDensity="0.07" occupancy="0.03" waitingTime="2.00" timeLoss="57.18" speed="10.70" speedRelative="0.77" departed="3" arrived="8" entered="63" left="58" laneChangedFrom="0" laneChangedTo="0"/>
        <edge id="--30418#2" sampledSeconds="326.85" traveltime="3.34" overlapTraveltime="3.80" density="0.11" laneDensity="0.11" occupancy="0.05" waitingTime="1.00" timeLoss="64.50" speed="10.73" speedRelative="0.77" departed="11" arrived="5" entered="83" left="89" laneChangedFrom="0" laneChangedTo="0"/>
        <edge id="--30418#3" sampledSeconds="668.72" traveltime="5.97" overlapTraveltime="6.63" density="0.14" laneDensity="0.14" occupancy="0.06" waitingTime="4.00" timeLoss="230.64" speed="8.88" speedRelative="0.64" departed="11" arrived="14" entered="102" left="99" laneChangedFrom="0" laneChangedTo="0"/>
        <edge id="--30418#4" sampledSeconds="762.00" traveltime="7.95" overlapTraveltime="8.49" density="0.11" laneDensity="0.11" occupancy="0.05" waitingTime="6.00" timeLoss="185.09" speed="10.37" speedRelative="0.75" departed="182" arrived="20" entered="0" left="162" laneChangedFrom="0" laneChangedTo="0"/>
        <edge id="--30542#0" sampledSeconds="64424.01" traveltime="65.27" overlapTraveltime="65.76" density="0.90" laneDensity="0.45" occupancy="0.22" waitingTime="34.00" timeLoss="5151.02" speed="12.60" speedRelative="0.91" departed="71" arrived="180" entered="1034" left="925" laneChangedFrom="626" laneChangedTo="626"/>
        <edge id="--30542#1" sampledSeconds="225545.22" traveltime="48.79" overlapTraveltime="48.71" density="32.37" laneDensity="16.19" occupancy="8.04" waitingTime="136241.00" timeLoss="196889.82" speed="1.75" speedRelative="0.13" departed="6222" arrived="1" entered="0" left="6221" laneChangedFrom="659" laneChangedTo="659"/>
        <edge id="--30560" sampledSeconds="56642.30" traveltime="27.30" overlapTraveltime="27.73" density="2.03" laneDensity="1.01" occupancy="0.50" waitingTime="775.62" timeLoss="16304.83" speed="11.77" speedRelative="0.71" departed="2" arrived="4173" entered="4171" left="0" laneChangedFrom="1415" laneChangedTo="1415"/>
        <edge id="--30580#0" sampledSeconds="685.15" traveltime="8.86" overlapTraveltime="9.53" density="0.09" laneDensity="0.09" occupancy="0.04" waitingTime="0.00" timeLoss="186.65" speed="9.95" speedRelative="0.72" departed="7" arrived="13" entered="76" left="70" laneChangedFrom="0" laneChangedTo="0"/>
        <edge id="--30580#1" sampledSeconds="448.91" traveltime="11.18" overlapTraveltime="11.61" density="0.05" laneDensity="0.05" occupancy="0.02" waitingTime="7.00" timeLoss="130.76" speed="9.83" speedRelative="0.71" departed="21" arrived="18" entered="37" left="40" laneChangedFrom="0" laneChangedTo="0"/>
        <edge id="--30580#2" sampledSeconds="446.34" traveltime="20.45" overlapTraveltime="21.17" density="0.03" laneDensity="0.03" occupancy="0.02" waitingTime="7.00" timeLoss="179.97" speed="8.27" speedRelative="0.60" departed="16" arrived="28" entered="28" left="16" laneChangedFrom="0" laneChangedTo="0"/>
        <edge id="--30580#3" sampledSeconds="1885.88" traveltime="32.45" overlapTraveltime="32.88" density="0.06" laneDensity="0.06" occupancy="0.03" waitingTime="11.00" timeLoss="392.36" speed="10.89" speedRelative="0.78" departed="12" arrived="74" entered="87" left="25" laneChangedFrom="0" laneChangedTo="0"/>
        <edge id="--30684#0" sampledSeconds="2164.82" traveltime="11.46" overlapTraveltime="12.17" density="0.32" laneDensity="0.32" occupancy="0.16" waitingTime="73.00" timeLoss="1103.91" speed="6.76" speedRelative="0.49" departed="19" arrived="344" entered="349" left="24" laneChangedFrom="0" laneChangedTo="0"/>
        <edge id="--30684#1" sampledSeconds="2430.51" traveltime="6.81" overlapTraveltime="7.46" density="0.38" laneDensity="0.38" occupancy="0.18" waitingTime="2.00" timeLoss="587.28" speed="10.46" speedRelative="0.75" departed="6" arrived="11" entered="329" left="324" laneChangedFrom="0" laneChangedTo="0"/>
        <edge id="--30684#2" sampledSeconds="8988.95" traveltime="24.39" overlapTraveltime="24.79" density="0.34" laneDensity="0.34" occupancy="0.17" waitingTime="10.00" timeLoss="847.18" speed="12.53" speedRelative="0.90" departed="39" arrived="52" entered="368" left="355" laneChangedFrom="0" laneChangedTo="0"/>
        <edge id="--30704" sampledSeconds="849.63" traveltime="9.60" overlapTraveltime="10.28" density="0.11" laneDensity="0.11" occupancy="0.05" waitingTime="8.00" timeLoss="294.47" speed="9.16" speedRelative="0.66" departed="20" arrived="29" entered="89" left="80" laneChangedFrom="0" laneChangedTo="0"/>
        <edge id="--30742#0" sampledSeconds="697.80" traveltime="12.83" overlapTraveltime="13.47" density="0.07" laneDensity="0.07" occupancy="0.03" waitingTime="23.00" timeLoss="208.04" speed="9.50" speedRelative="0.68" departed="16" arrived="19" entered="53" left="50" laneChangedFrom="0" laneChangedTo="0"/>
        <edge id="--30742#1" sampledSeconds="954.88" traveltime="11.42" overlapTraveltime="11.94" density="0.08" laneDensity="0.08" occupancy="0.04" waitingTime="1.00" timeLoss="165.75" speed="11.37" speedRelative="0.82" departed="9" arrived="19" entered="86" left="76" laneChangedFrom="0" laneChangedTo="0"/>
        <edge id="--30742#2" sampledSeconds="934.40" traveltime="8.93" overlapTraveltime="9.33" density="0.10" laneDensity="0.10" occupancy="0.05" waitingTime="6.00" timeLoss="123.92" speed="11.91" speedRelative="0.86" departed="66" arrived="22" entered="70" left="114" laneChangedFrom="0" laneChangedTo="0"/>
        <edge id="--30744" sampledSeconds="422.21" traveltime="4.51" overlapTraveltime="5.19" density="0.14" laneDensity="0.14" occupancy="0.06" waitingTime="6.00" timeLoss="194.27" speed="7.42" speedRelative="0.53" departed="15" arrived="16" entered="83" left="82" laneChangedFrom="0" laneChangedTo="0"/>
        <edge id="--30770#0" sampledSeconds="157.26" traveltime="8.82" overlapTraveltime="10.05" density="0.05" laneDensity="0.05" occupancy="0.02" waitingTime="6.00" timeLoss="106.74" speed="4.31" speedRelative="0.31" departed="0" arrived="38" entered="38" left="0" laneChangedFrom="0" laneChangedTo="0"/>
        <edge id="--30770#1" sampledSeconds="448.24" traveltime="7.85" overlapTraveltime="8.61" density="0.07" laneDensity="0.07" occupancy="0.03" waitingTime="11.00" timeLoss="158.87" speed="8.93" speedRelative="0.64" departed="86" arrived="21" entered="11" left="76" laneChangedFrom="0" laneChangedTo="0"/>
        <edge id="--30794" sampledSeconds="2528.84" traveltime="15.85" overlapTraveltime="16.36" density="0.16" laneDensity="0.16" occupancy="0.08" waitingTime="6.00" timeLoss="435.12" speed="11.37" speedRelative="0.82" departed="25" arrived="42" entered="162" left="145" laneChangedFrom="0" laneChangedTo="0"/>
        <edge id="--30842#0" sampledSeconds="665.02" traveltime="16.84" overlapTraveltime="17.61" density="0.05" laneDensity="0.05" occupancy="0.02" waitingTime="8.00" timeLoss="198.40" speed="9.77" speedRelative="0.70" departed="83" arrived="25" entered="0" left="58" laneChangedFrom="0" laneChangedTo="0"/>
        <edge id="--30872#10" sampledSeconds="14192.54" traveltime="22.32" overlapTraveltime="23.19" density="1.56" laneDensity="0.78" occupancy="0.38" waitingTime="7186.00" timeLoss="9279.74" speed="4.72" speedRelative="0.34" departed="19" arrived="30" entered="620" left="609" laneChangedFrom="244" laneChangedTo="244"/>
        <edge id="--30872#11" sampledSeconds="245480.36" traveltime="42.07" overlapTraveltime="42.73" density="39.22" laneDensity="19.61" occupancy="9.67" waitingTime="173933.00" timeLoss="213358.59" speed="1.80" speedRelative="0.13" departed="10" arrived="13" entered="5747" left="5744" laneChangedFrom="686" laneChangedTo="686"/>
        <edge id="--30872#7" sampledSeconds="2634.80" traveltime="9.52" overlapTraveltime="10.15" density="0.46" laneDensity="0.23" occupancy="0.11" waitingTime="95.00" timeLoss="1305.68" speed="6.92" speedRelative="0.50" departed="15" arrived="407" entered="462" left="70" laneChangedFrom="16" laneChangedTo="16"/>
        <edge id="--30872#8" sampledSeconds="9055.64" traveltime="18.84" overlapTraveltime="19.49" density="0.45" laneDensity="0.22" occupancy="0.11" waitingTime="13.00" timeLoss="1002.85" speed="12.20" speedRelative="0.88" departed="32" arrived="35" entered="465" left="462" laneChangedFrom="128" laneChangedTo="128"/>
        <edge id="--30872#9" sampledSeconds="11088.21" traveltime="20.60" overlapTraveltime="21.20" density="0.79" laneDensity="0.39" occupancy="0.19" waitingTime="3542.00" timeLoss="4725.83" speed="7.85" speedRelative="0.57" departed="28" arrived="30" entered="521" left="519" laneChangedFrom="140" laneChangedTo="140"/>
        <edge id="--30892#18" sampledSeconds="68938.27" traveltime="11.25" overlapTraveltime="12.22" density="13.71" laneDensity="4.57" occupancy="2.14" waitingTime="2205.75" timeLoss="43137.44" speed="5.14" speedRelative="0.37" departed="12" arrived="12241" entered="12229" left="0" laneChangedFrom="535" laneChangedTo="535"/>
        <edge id="--30892#19" sampledSeconds="72818.03" traveltime="5.50" overlapTraveltime="5.99" density="12.46" laneDensity="4.15" occupancy="1.93" waitingTime="1.00" timeLoss="8919.66" speed="12.06" speedRelative="0.87" departed="79" arrived="8" entered="12128" left="12199" laneChangedFrom="207" laneChangedTo="207"/>
        <edge id="--30892#20" sampledSeconds="9110.27" traveltime="0.79" overlapTraveltime="1.25" density="12.77" laneDensity="4.26" occupancy="1.32" waitingTime="53.00" timeLoss="2044.33" speed="10.65" speedRelative="0.77" departed="24" arrived="12" entered="7325" left="7337" laneChangedFrom="27" laneChangedTo="27"/>
        <edge id="--30892#21" sampledSeconds="171432.76" traveltime="43.28" overlapTraveltime="43.63" density="12.31" laneDensity="4.10" occupancy="2.04" waitingTime="98630.00" timeLoss="124161.39" speed="3.78" speedRelative="0.27" departed="7288" arrived="22" entered="0" left="7266" laneChangedFrom="408" laneChangedTo="408"/>
        <edge id="--30948" sampledSeconds="156.45" traveltime="14.19" overlapTraveltime="14.92" density="0.02" laneDensity="0.02" occupancy="0.01" waitingTime="0.00" timeLoss="71.43" speed="7.33" speedRelative="0.53" departed="16" arrived="0" entered="0" left="16" laneChangedFrom="0" laneChangedTo="0"/>
        <edge id="--30992#0" sampledSeconds="1655.22" traveltime="14.22" overlapTraveltime="14.63" density="0.11" laneDensity="0.11" occupancy="0.06" waitingTime="9.00" timeLoss="254.68" speed="11.69" speedRelative="0.84" departed="18" arrived="35" entered="124" left="107" laneChangedFrom="0" laneChangedTo="0"/>
        <edge id="--30992#1" sampledSeconds="377.05" traveltime="23.26" overlapTraveltime="23.68" density="0.02" laneDensity="0.02" occupancy="0.01" waitingTime="0.00" timeLoss="94.64" speed="10.50" speedRelative="0.76" departed="28" arrived="0" entered="0" left="28" laneChangedFrom="0" laneChangedTo="0"/>
        <edge id="--31018" sampledSeconds="218.09" traveltime="4.78" overlapTraveltime="5.43" density="0.08" laneDensity="0.08" occupancy="0.03" waitingTime="7.00" timeLoss="109.07" speed="6.99" speedRelative="0.50" departed="14" arrived="17" entered="43" left="40" laneChangedFrom="0" laneChangedTo="0"/>
        <edge id="--31060" sampledSeconds="88.15" traveltime="9.80" overlapTraveltime="10.61" density="0.02" laneDensity="0.02" occupancy="0.01" waitingTime="2.00" timeLoss="46.86" speed="6.20" speedRelative="0.45" departed="0" arrived="14" entered="14" left="0" laneChangedFrom="0" laneChangedTo="0"/>
        <edge id="--31118#0" sampledSeconds="1084.42" traveltime="1.66" overlapTraveltime="2.16" density="0.84" laneDensity="0.42" occupancy="0.16" waitingTime="0.00" timeLoss="454.96" speed="9.14" speedRelative="0.55" departed="12" arrived="3" entered="496" left="505" laneChangedFrom="39" laneChangedTo="39"/>
        <edge id="--31118#1" sampledSeconds="1411.97" traveltime="3.13" overlapTraveltime="3.51" density="0.37" laneDensity="0.19" occupancy="0.08" waitingTime="3.00" timeLoss="224.52" speed="13.88" speedRelative="0.83" departed="19" arrived="15" entered="401" left="405" laneChangedFrom="48" laneChangedTo="48"/>
        <edge id="--31118#2" sampledSeconds="2396.64" traveltime="5.53" overlapTraveltime="5.88" density="0.35" laneDensity="0.18" occupancy="0.08" waitingTime="2.00" timeLoss="336.28" speed="14.18" speedRelative="0.85" departed="11" arrived="22" entered="413" left="402" laneChangedFrom="67" laneChangedTo="67"/>
        <edge id="--31194" sampledSeconds="115.60" traveltime="12.67" overlapTraveltime="13.28" density="0.01" laneDensity="0.01" occupancy="0.01" waitingTime="0.00" timeLoss="41.01" speed="8.53" speedRelative="0.61" departed="2" arrived="7" entered="11" left="6" laneChangedFrom="0" laneChangedTo="0"/>
        <edge id="--31272#7" sampledSeconds="140008.82" traveltime="28.58" overlapTraveltime="29.08" density="5.67" laneDensity="1.89" occupancy="0.93" waitingTime="1735.53" timeLoss="38956.87" speed="9.93" speedRelative="0.72" departed="45" arrived="9686" entered="9641" left="0" laneChangedFrom="4202" laneChangedTo="4202"/>
        <edge id="--31272#8" sampledSeconds="188082.72" traveltime="43.91" overlapTraveltime="44.77" density="7.17" laneDensity="2.39" occupancy="1.18" waitingTime="73833.00" timeLoss="94617.19" speed="6.84" speedRelative="0.49" departed="47" arrived="46" entered="4203" left="4204" laneChangedFrom="2543" laneChangedTo="2543"/>
        <edge id="--31328#2" sampledSeconds="14.00" traveltime="26.83" overlapTraveltime="29.11" density="0.00" laneDensity="0.00" occupancy="0.00" waitingTime="3.00" timeLoss="11.39" speed="2.60" speedRelative="0.19" departed="4" arrived="4" entered="0" left="0" laneChangedFrom="0" laneChangedTo="0"/>
        <edge id="--31342#1" sampledSeconds="2614.01" traveltime="12.59" overlapTraveltime="13.44" density="0.40" laneDensity="0.40" occupancy="0.19" waitingTime="66.00" timeLoss="1470.22" speed="5.98" speedRelative="0.43" departed="15" arrived="439" entered="424" left="0" laneChangedFrom="0" laneChangedTo="0"/>
        <edge id="--31342#2" sampledSeconds="1923.57" traveltime="4.88" overlapTraveltime="5.55" density="0.48" laneDensity="0.48" occupancy="0.22" waitingTime="8.00" timeLoss="632.56" speed="9.16" speedRelative="0.66" departed="5" arrived="15" entered="353" left="343" laneChangedFrom="0" laneChangedTo="0"/>
        <edge id="--31342#3" sampledSeconds="1108.53" traveltime="4.37" overlapTraveltime="4.80" density="0.27" laneDensity="0.27" occupancy="0.12" waitingTime="3.00" timeLoss="223.11" speed="10.92" speedRelative="0.79" departed="12" arrived="24" entered="237" left="225" laneChangedFrom="0" laneChangedTo="0"/>
        <edge id="--31416" sampledSeconds="552.57" traveltime="7.94" overlapTraveltime="8.67" density="0.10" laneDensity="0.10" occupancy="0.05" waitingTime="5.00" timeLoss="238.64" speed="7.82" speedRelative="0.56" departed="22" arrived="22" entered="64" left="64" laneChangedFrom="0" laneChangedTo="0"/>
        <edge id="--31466#3" sampledSeconds="31686.15" traveltime="14.18" overlapTraveltime="15.02" density="4.27" laneDensity="2.14" occupancy="1.01" waitingTime="793.17" timeLoss="20158.66" speed="6.01" speedRelative="0.36" departed="0" arrived="4488" entered="4488" left="0" laneChangedFrom="963" laneChangedTo="963"/>
        <edge id="--31496#0" sampledSeconds="97300.88" traveltime="79.07" overlapTraveltime="79.49" density="1.18" laneDensity="0.39" occupancy="0.20" waitingTime="469.00" timeLoss="12693.30" speed="11.95" speedRelative="0.86" departed="47" arrived="2518" entered="2471" left="0" laneChangedFrom="1876" laneChangedTo="1876"/>
        <edge id="--31496#1" sampledSeconds="156877.93" traveltime="49.41" overlapTraveltime="50.67" density="3.85" laneDensity="1.28" occupancy="0.63" waitingTime="29757.00" timeLoss="50499.10" speed="9.33" speedRelative="0.67" departed="14" arrived="296" entered="3234" left="2952" laneChangedFrom="4216" laneChangedTo="4216"/>
        <edge id="--31496#2" sampledSeconds="123497.94" traveltime="33.74" overlapTraveltime="34.49" density="4.95" laneDensity="1.65" occupancy="0.81" waitingTime="30144.00" timeLoss="47567.55" speed="8.46" speedRelative="0.61" departed="11" arrived="134" entered="3636" left="3513" laneChangedFrom="2182" laneChangedTo="2182"/>
        <edge id="--31496#3" sampledSeconds="421869.79" traveltime="51.36" overlapTraveltime="52.28" density="14.05" laneDensity="4.68" occupancy="2.33" waitingTime="145402.00" timeLoss="216966.29" speed="6.69" speedRelative="0.48" departed="7" arrived="124" entered="8129" left="8012" laneChangedFrom="6772" laneChangedTo="6772"/>
        <edge id="--31496#4" sampledSeconds="177368.81" traveltime="16.78" overlapTraveltime="17.37" density="17.53" laneDensity="5.84" occupancy="2.85" waitingTime="58567.00" timeLoss="87611.72" speed="6.99" speedRelative="0.50" departed="6" arrived="50" entered="10237" left="10193" laneChangedFrom="2522" laneChangedTo="2522"/>
        <edge id="--31496#5" sampledSeconds="473835.85" traveltime="52.59" overlapTraveltime="53.35" density="12.05" laneDensity="4.02" occupancy="1.99" waitingTime="115289.00" timeLoss="177479.36" speed="8.57" speedRelative="0.62" departed="30" arrived="122" entered="8929" left="8837" laneChangedFrom="7694" laneChangedTo="7694"/>
        <edge id="--31496#6" sampledSeconds="256089.20" traveltime="32.89" overlapTraveltime="33.70" density="19.92" laneDensity="6.64" occupancy="3.28" waitingTime="135398.00" timeLoss="171136.37" speed="4.53" speedRelative="0.33" departed="17" arrived="43" entered="7614" left="7588" laneChangedFrom="3976" laneChangedTo="3976"/>
        <edge id="--31496#7" sampledSeconds="20774.12" traveltime="2.96" overlapTraveltime="3.36" density="6.80" laneDensity="2.27" occupancy="1.02" waitingTime="30.00" timeLoss="2735.60" speed="11.94" speedRelative="0.86" departed="10089" arrived="51" entered="9" left="10047" laneChangedFrom="509" laneChangedTo="509"/>
        <edge id="--31542#0" sampledSeconds="63875.74" traveltime="41.64" overlapTraveltime="42.27" density="3.04" laneDensity="3.04" occupancy="1.51" waitingTime="26767.00" timeLoss="37339.73" speed="5.84" speedRelative="0.42" departed="43" arrived="22" entered="1503" left="1524" laneChangedFrom="0" laneChangedTo="0"/>
        <edge id="--31564#0" sampledSeconds="120.04" traveltime="8.48" overlapTraveltime="9.79" density="0.04" laneDensity="0.04" occupancy="0.02" waitingTime="2.00" timeLoss="87.33" speed="3.77" speedRelative="0.27" departed="0" arrived="31" entered="31" left="0" laneChangedFrom="0" laneChangedTo="0"/>
        <edge id="--31564#1" sampledSeconds="819.21" traveltime="16.68" overlapTraveltime="17.36" density="0.05" laneDensity="0.05" occupancy="0.02" waitingTime="2.00" timeLoss="178.68" speed="10.84" speedRelative="0.78" departed="11" arrived="22" entered="50" left="39" laneChangedFrom="0" laneChangedTo="0"/>
        <edge id="--31564#2" sampledSeconds="568.36" traveltime="10.24" overlapTraveltime="11.00" density="0.07" laneDensity="0.07" occupancy="0.03" waitingTime="2.00" timeLoss="189.53" speed="9.12" speedRelative="0.66" departed="18" arrived="19" entered="52" left="51" laneChangedFrom="0" laneChangedTo="0"/>
        <edge id="--31564#3" sampledSeconds="638.84" traveltime="7.67" overlapTraveltime="8.11" density="0.09" laneDensity="0.09" occupancy="0.04" waitingTime="7.00" timeLoss="140.21" speed="10.70" speedRelative="0.77" departed="14" arrived="17" entered="78" left="75" laneChangedFrom="0" laneChangedTo="0"/>
        <edge id="--31564#4" sampledSeconds="428.98" traveltime="6.29" overlapTraveltime="6.82" density="0.08" laneDensity="0.08" occupancy="0.04" waitingTime="4.00" timeLoss="125.53" speed="9.70" speedRelative="0.70" departed="10" arrived="13" entered="65" left="62" laneChangedFrom="0" laneChangedTo="0"/>
        <edge id="--31564#5" sampledSeconds="627.96" traveltime="9.89" overlapTraveltime="10.42" density="0.07" laneDensity="0.07" occupancy="0.03" waitingTime="3.00" timeLoss="160.47" speed="10.34" speedRelative="0.74" departed="13" arrived="18" entered="62" left="57" laneChangedFrom="0" laneChangedTo="0"/>
        <edge id="--31602#0" sampledSeconds="1697.22" traveltime="25.79" overlapTraveltime="26.66" density="0.14" laneDensity="0.14" occupancy="0.07" waitingTime="670.00" timeLoss="1027.16" speed="5.43" speedRelative="0.39" departed="24" arrived="30" entered="68" left="62" laneChangedFrom="0" laneChangedTo="0"/>
        <edge id="--31602#1" sampledSeconds="1019.74" traveltime="6.76" overlapTraveltime="7.42" density="0.18" laneDensity="0.18" occupancy="0.08" waitingTime="1.00" timeLoss="303.97" speed="9.68" speedRelative="0.70" departed="11" arrived="9" entered="136" left="138" laneChangedFrom="0" laneChangedTo="0"/>
        <edge id="--31602#2" sampledSeconds="1140.54" traveltime="12.45" overlapTraveltime="13.27" density="0.11" laneDensity="0.11" occupancy="0.05" waitingTime="10.00" timeLoss="362.66" speed="9.34" speedRelative="0.67" departed="180" arrived="29" entered="0" left="151" laneChangedFrom="0" laneChangedTo="0"/>
        <edge id="--31650" sampledSeconds="971.03" traveltime="3.83" overlapTraveltime="4.50" density="0.34" laneDensity="0.34" occupancy="0.15" waitingTime="3.00" timeLoss="375.53" speed="8.41" speedRelative="0.61" departed="13" arrived="15" entered="216" left="214" laneChangedFrom="0" laneChangedTo="0"/>
        <edge id="--31676#0" sampledSeconds="2820.43" traveltime="50.63" overlapTraveltime="51.06" density="0.06" laneDensity="0.06" occupancy="0.03" waitingTime="12.00" timeLoss="442.97" speed="11.64" speedRelative="0.84" departed="0" arrived="112" entered="112" left="0" laneChangedFrom="0" laneChangedTo="0"/>
        <edge id="--31676#1" sampledSeconds="4141.48" traveltime="19.17" overlapTraveltime="19.59" density="0.23" laneDensity="0.23" occupancy="0.11" waitingTime="35.00" timeLoss="887.04" speed="10.80" speedRelative="0.78" departed="0" arrived="207" entered="319" left="112" laneChangedFrom="0" laneChangedTo="0"/>
        <edge id="--31676#2" sampledSeconds="3523.22" traveltime="5.82" overlapTraveltime="6.42" density="0.63" laneDensity="0.63" occupancy="0.29" waitingTime="22.00" timeLoss="754.79" speed="10.78" speedRelative="0.78" departed="0" arrived="35" entered="570" left="535" laneChangedFrom="0" laneChangedTo="0"/>
        <edge id="--31678#0" sampledSeconds="7.00" traveltime="15.67" overlapTraveltime="17.96" density="0.00" laneDensity="0.00" occupancy="0.00" waitingTime="3.00" timeLoss="5.89" speed="2.49" speedRelative="0.18" departed="4" arrived="4" entered="0" left="0" laneChangedFrom="0" laneChangedTo="0"/>
        <edge id="--31704" sampledSeconds="2918.35" traveltime="12.06" overlapTraveltime="12.46" density="0.26" laneDensity="0.26" occupancy="0.12" waitingTime="3.00" timeLoss="606.67" speed="10.95" speedRelative="0.79" departed="137" arrived="22" entered="177" left="292" laneChangedFrom="0" laneChangedTo="0"/>
        <edge id="--31706#0" sampledSeconds="646.56" traveltime="19.77" overlapTraveltime="20.39" density="0.04" laneDensity="0.04" occupancy="0.02" waitingTime="3.00" timeLoss="178.45" speed="10.13" speedRelative="0.73" departed="13" arrived="21" entered="36" left="28" laneChangedFrom="0" laneChangedTo="0"/>
        <edge id="--31706#1" sampledSeconds="902.60" traveltime="15.32" overlapTraveltime="16.11" density="0.07" laneDensity="0.07" occupancy="0.03" waitingTime="9.00" timeLoss="242.96" speed="9.93" speedRelative="0.71" departed="15" arrived="32" entered="66" left="49" laneChangedFrom="0" laneChangedTo="0"/>
        <edge id="--31706#2" sampledSeconds="583.89" traveltime="4.82" overlapTraveltime="5.27" density="0.14" laneDensity="0.14" occupancy="0.06" waitingTime="2.00" timeLoss="139.95" speed="10.38" speedRelative="0.75" departed="15" arrived="19" entered="113" left="109" laneChangedFrom="0" laneChangedTo="0"/>
        <edge id="--31726" sampledSeconds="121.56" traveltime="10.93" overlapTraveltime="11.63" density="0.02" laneDensity="0.02" occupancy="0.01" waitingTime="7.00" timeLoss="72.37" speed="5.40" speedRelative="0.39" departed="17" arrived="0" entered="0" left="17" laneChangedFrom="0" laneChangedTo="0"/>
        <edge id="--31784#0" sampledSeconds="184.93" traveltime="5.26" overlapTraveltime="5.77" density="0.04" laneDensity="0.02" occupancy="0.01" waitingTime="0.00" timeLoss="51.32" speed="10.04" speedRelative="0.72" departed="10" arrived="3" entered="27" left="34" laneChangedFrom="2" laneChangedTo="2"/>
        <edge id="--31784#1" sampledSeconds="246.71" traveltime="6.29" overlapTraveltime="6.70" density="0.05" laneDensity="0.02" occupancy="0.01" waitingTime="2.00" timeLoss="77.58" speed="9.76" speedRelative="0.70" departed="12" arrived="13" entered="37" left="36" laneChangedFrom="9" laneChangedTo="9"/>
        <edge id="--31784#2" sampledSeconds="682.65" traveltime="22.55" overlapTraveltime="23.33" density="0.04" laneDensity="0.02" occupancy="0.01" waitingTime="8.00" timeLoss="195.09" speed="9.74" speedRelative="0.70" departed="73" arrived="25" entered="0" left="48" laneChangedFrom="6" laneChangedTo="6"/>
        <edge id="--31842" sampledSeconds="397.00" traveltime="4.58" overlapTraveltime="5.28" density="0.11" laneDensity="0.11" occupancy="0.05" waitingTime="0.00" timeLoss="150.40" speed="8.73" speedRelative="0.63" departed="13" arrived="0" entered="69" left="82" laneChangedFrom="0" laneChangedTo="0"/>
        <edge id="--31858#0" sampledSeconds="452.86" traveltime="12.78" overlapTraveltime="13.51" density="0.04" laneDensity="0.04" occupancy="0.02" waitingTime="6.00" timeLoss="154.51" speed="8.95" speedRelative="0.64" departed="18" arrived="23" entered="35" left="30" laneChangedFrom="0" laneChangedTo="0"/>
        <edge id="--31858#1" sampledSeconds="488.23" traveltime="11.39" overlapTraveltime="12.17" density="0.05" laneDensity="0.05" occupancy="0.02" waitingTime="3.00" timeLoss="155.52" speed="9.34" speedRelative="0.67" departed="15" arrived="13" entered="40" left="42" laneChangedFrom="0" laneChangedTo="0"/>