<?xml version="1.0" encoding="UTF-8"?>

<!-- generated on 2023-02-08 10:54:13 by Eclipse SUMO sumo Version 1.15.0
<configuration xmlns:xsi="http://www.w3.org/2001/XMLSchema-instance" xsi:noNamespaceSchemaLocation="http://sumo.dlr.de/xsd/sumoConfiguration.xsd">

    <input>
        <net-file value="pasubio_buslanes.net.xml"/>
        <route-files value="pasubio.rou.xml"/>
        <additional-files value="pasubio_vtypes.add.xml,pasubio_tls.add.xml"/>
    </input>

    <output>
        <summary-output value="summary.xml"/>
        <edgedata-output value="edgedata.xml"/>
    </output>

    <time>
        <step-length value="1"/>
    </time>

    <report>
        <log value="sumo_log.txt"/>
        <no-step-log value="false"/>
        <step-log.period value="100"/>
    </report>

</configuration>
-->

<meandata xmlns:xsi="http://www.w3.org/2001/XMLSchema-instance" xsi:noNamespaceSchemaLocation="http://sumo.dlr.de/xsd/meandata_file.xsd">
    <interval begin="0.00" end="4754.00" id="DEFAULT_EDGEDATA">
        <edge id="10" sampledSeconds="8298.14" traveltime="18.41" overlapTraveltime="18.79" density="7.78" laneDensity="7.78" occupancy="3.69" waitingTime="0.00" timeLoss="937.67" speed="12.19" speedRelative="0.88" departed="0" arrived="444" entered="444" left="0" laneChangedFrom="0" laneChangedTo="0"/>
        <edge id="100" sampledSeconds="33371.44" traveltime="58.64" overlapTraveltime="59.27" density="89.69" laneDensity="44.84" occupancy="21.38" waitingTime="26224.00" timeLoss="29964.47" speed="1.40" speedRelative="0.10" departed="0" arrived="0" entered="563" left="563" laneChangedFrom="0" laneChangedTo="0"/>
        <edge id="101" sampledSeconds="6588.01" traveltime="13.94" overlapTraveltime="14.64" density="14.88" laneDensity="7.44" occupancy="3.45" waitingTime="2022.00" timeLoss="3321.55" speed="6.69" speedRelative="0.48" departed="0" arrived="0" entered="450" left="450" laneChangedFrom="76" laneChangedTo="76"/>
        <edge id="11[0]" sampledSeconds="14634.66" traveltime="43.02" overlapTraveltime="43.84" density="33.85" laneDensity="16.93" occupancy="8.10" waitingTime="9360.00" timeLoss="12312.90" speed="2.18" speedRelative="0.16" departed="0" arrived="0" entered="334" left="334" laneChangedFrom="156" laneChangedTo="156"/>
        <edge id="11[1][1]" sampledSeconds="20254.61" traveltime="43.38" overlapTraveltime="47.57" density="100.46" laneDensity="50.23" occupancy="22.37" waitingTime="15750.00" timeLoss="18783.17" speed="0.99" speedRelative="0.07" departed="0" arrived="0" entered="426" left="426" laneChangedFrom="77" laneChangedTo="77"/>
        <edge id="12" sampledSeconds="111647.94" traveltime="88.30" overlapTraveltime="88.89" density="46.43" laneDensity="15.48" occupancy="7.38" waitingTime="43296.00" timeLoss="64936.68" speed="5.74" speedRelative="0.41" departed="1256" arrived="0" entered="0" left="1256" laneChangedFrom="834" laneChangedTo="834"/>
        <edge id="13[0]" sampledSeconds="3741.23" traveltime="10.29" overlapTraveltime="10.75" density="8.23" laneDensity="4.11" occupancy="1.75" waitingTime="2.00" timeLoss="1151.04" speed="9.34" speedRelative="0.67" departed="348" arrived="0" entered="0" left="348" laneChangedFrom="0" laneChangedTo="0"/>
        <edge id="14" sampledSeconds="47385.64" traveltime="135.18" overlapTraveltime="136.15" density="31.46" laneDensity="31.46" occupancy="15.00" waitingTime="31247.00" timeLoss="39137.41" speed="2.36" speedRelative="0.17" departed="0" arrived="0" entered="348" left="348" laneChangedFrom="0" laneChangedTo="0"/>
        <edge id="15" sampledSeconds="689.68" traveltime="25.26" overlapTraveltime="25.64" density="0.46" laneDensity="0.46" occupancy="0.22" waitingTime="0.00" timeLoss="54.61" speed="12.55" speedRelative="0.90" departed="0" arrived="27" entered="27" left="0" laneChangedFrom="0" laneChangedTo="0"/>
        <edge id="16[0]" sampledSeconds="3820.32" traveltime="16.45" overlapTraveltime="17.69" density="4.29" laneDensity="4.29" occupancy="1.95" waitingTime="202.00" timeLoss="735.96" speed="10.86" speedRelative="0.78" departed="0" arrived="0" entered="216" left="216" laneChangedFrom="0" laneChangedTo="0"/>
        <edge id="16[1]" sampledSeconds="7477.74" traveltime="33.95" overlapTraveltime="34.94" density="7.14" laneDensity="7.14" occupancy="3.38" waitingTime="2619.00" timeLoss="3936.04" speed="6.44" speedRelative="0.46" departed="0" arrived="0" entered="214" left="214" laneChangedFrom="0" laneChangedTo="0"/>
        <edge id="17[0]" sampledSeconds="85061.76" traveltime="152.11" overlapTraveltime="152.99" density="81.20" laneDensity="81.20" occupancy="39.04" waitingTime="58137.00" timeLoss="75915.78" speed="1.47" speedRelative="0.11" departed="0" arrived="0" entered="556" left="556" laneChangedFrom="0" laneChangedTo="0"/>
        <edge id="17[1]" sampledSeconds="103257.32" traveltime="248.00" overlapTraveltime="248.81" density="116.02" laneDensity="116.02" occupancy="55.88" waitingTime="80828.00" timeLoss="97287.65" speed="0.77" speedRelative="0.06" departed="0" arrived="0" entered="415" left="415" laneChangedFrom="0" laneChangedTo="0"/>
        <edge id="18" sampledSeconds="4540.67" traveltime="11.89" overlapTraveltime="12.31" density="6.60" laneDensity="6.60" occupancy="3.06" waitingTime="5.00" timeLoss="510.86" speed="12.16" speedRelative="0.88" departed="0" arrived="0" entered="369" left="369" laneChangedFrom="0" laneChangedTo="0"/>
        <edge id="1[0]" sampledSeconds="176193.66" traveltime="82.97" overlapTraveltime="83.86" density="91.75" laneDensity="30.58" occupancy="14.52" waitingTime="70731.00" timeLoss="113772.89" speed="4.87" speedRelative="0.35" departed="2101" arrived="0" entered="0" left="2101" laneChangedFrom="1303" laneChangedTo="1303"/>
        <edge id="1[1]" sampledSeconds="156170.18" traveltime="77.47" overlapTraveltime="78.01" density="68.06" laneDensity="22.69" occupancy="10.89" waitingTime="58387.00" timeLoss="85123.18" speed="6.25" speedRelative="0.45" departed="0" arrived="0" entered="2002" left="2002" laneChangedFrom="681" laneChangedTo="681"/>
        <edge id="20+19a" sampledSeconds="3581.65" traveltime="26.35" overlapTraveltime="27.34" density="23.69" laneDensity="11.85" occupancy="5.58" waitingTime="2655.00" timeLoss="3226.03" speed="1.34" speedRelative="0.10" departed="0" arrived="0" entered="131" left="131" laneChangedFrom="0" laneChangedTo="0"/>
        <edge id="20+19b" sampledSeconds="7280.31" traveltime="29.74" overlapTraveltime="30.60" density="29.37" laneDensity="29.37" occupancy="13.94" waitingTime="4946.00" timeLoss="6216.23" speed="1.86" speedRelative="0.13" departed="0" arrived="0" entered="238" left="238" laneChangedFrom="0" laneChangedTo="0"/>
        <edge id="20000+35[1][1][1][0]" sampledSeconds="673.94" traveltime="2.24" overlapTraveltime="2.61" density="4.82" laneDensity="2.41" occupancy="1.00" waitingTime="0.00" timeLoss="38.10" speed="13.10" speedRelative="0.94" departed="0" arrived="0" entered="258" left="258" laneChangedFrom="0" laneChangedTo="0"/>
        <edge id="21" sampledSeconds="987.72" traveltime="7.34" overlapTraveltime="7.71" density="2.30" laneDensity="1.15" occupancy="0.52" waitingTime="0.00" timeLoss="104.27" speed="12.32" speedRelative="0.89" departed="0" arrived="130" entered="130" left="0" laneChangedFrom="0" laneChangedTo="0"/>
        <edge id="22[0]" sampledSeconds="1542.84" traveltime="15.21" overlapTraveltime="15.58" density="2.01" laneDensity="1.01" occupancy="0.45" waitingTime="0.00" timeLoss="334.37" speed="10.66" speedRelative="0.77" departed="99" arrived="0" entered="0" left="99" laneChangedFrom="0" laneChangedTo="0"/>
        <edge id="22[1]" sampledSeconds="2687.57" traveltime="26.11" overlapTraveltime="27.16" density="13.92" laneDensity="6.96" occupancy="3.32" waitingTime="2025.00" timeLoss="2354.92" speed="1.67" speedRelative="0.12" departed="0" arrived="0" entered="99" left="99" laneChangedFrom="0" laneChangedTo="0"/>
        <edge id="23" sampledSeconds="17943.63" traveltime="55.58" overlapTraveltime="56.43" density="24.27" laneDensity="12.13" occupancy="5.81" waitingTime="11451.00" timeLoss="14240.05" speed="2.84" speedRelative="0.20" departed="0" arrived="0" entered="318" left="318" laneChangedFrom="67" laneChangedTo="67"/>
        <edge id="24" sampledSeconds="290.56" traveltime="2.25" overlapTraveltime="2.64" density="2.53" laneDensity="1.27" occupancy="0.51" waitingTime="0.00" timeLoss="59.65" speed="10.98" speedRelative="0.79" departed="0" arrived="0" entered="110" left="110" laneChangedFrom="0" laneChangedTo="0"/>
        <edge id="25" sampledSeconds="853.01" traveltime="3.26" overlapTraveltime="4.10" density="7.92" laneDensity="3.96" occupancy="1.62" waitingTime="71.00" timeLoss="440.59" speed="6.70" speedRelative="0.48" departed="0" arrived="0" entered="208" left="208" laneChangedFrom="141" laneChangedTo="141"/>
        <edge id="26" sampledSeconds="1510.55" traveltime="10.73" overlapTraveltime="11.11" density="2.49" laneDensity="1.25" occupancy="0.57" waitingTime="0.00" timeLoss="203.60" speed="11.91" speedRelative="0.86" departed="0" arrived="0" entered="136" left="136" laneChangedFrom="125" laneChangedTo="125"/>
        <edge id="26.-170" sampledSeconds="4559.21" traveltime="32.09" overlapTraveltime="33.52" density="6.14" laneDensity="6.14" occupancy="2.89" waitingTime="2210.00" timeLoss="2929.01" speed="4.80" speedRelative="0.35" departed="0" arrived="0" entered="136" left="136" laneChangedFrom="0" laneChangedTo="0"/>
        <edge id="27" sampledSeconds="1472.28" traveltime="22.64" overlapTraveltime="23.00" density="1.06" laneDensity="1.06" occupancy="0.50" waitingTime="0.00" timeLoss="106.09" speed="12.89" speedRelative="0.93" departed="0" arrived="0" entered="64" left="64" laneChangedFrom="0" laneChangedTo="0"/>
        <edge id="28" sampledSeconds="1824.86" traveltime="16.28" overlapTraveltime="17.05" density="2.03" laneDensity="2.03" occupancy="0.94" waitingTime="0.00" timeLoss="294.26" speed="11.36" speedRelative="0.82" departed="0" arrived="0" entered="107" left="107" laneChangedFrom="0" laneChangedTo="0"/>
        <edge id="28a" sampledSeconds="4975.59" traveltime="45.38" overlapTraveltime="46.51" density="7.99" laneDensity="7.99" occupancy="3.82" waitingTime="3219.00" timeLoss="3864.65" speed="2.92" speedRelative="0.21" departed="0" arrived="0" entered="107" left="107" laneChangedFrom="0" laneChangedTo="0"/>
        <edge id="29[0]" sampledSeconds="1526.04" traveltime="11.22" overlapTraveltime="11.90" density="2.45" laneDensity="2.45" occupancy="1.12" waitingTime="0.00" timeLoss="265.80" speed="11.41" speedRelative="0.82" departed="0" arrived="79" entered="129" left="50" laneChangedFrom="0" laneChangedTo="0"/>
        <edge id="29[1]" sampledSeconds="4031.40" traveltime="79.19" overlapTraveltime="80.64" density="4.44" laneDensity="4.44" occupancy="2.11" waitingTime="2905.00" timeLoss="3315.51" speed="2.43" speedRelative="0.17" departed="0" arrived="0" entered="50" left="50" laneChangedFrom="0" laneChangedTo="0"/>
        <edge id="2[0]" sampledSeconds="16581.42" traveltime="14.28" overlapTraveltime="14.66" density="19.52" laneDensity="6.51" occupancy="3.05" waitingTime="0.00" timeLoss="1531.87" speed="12.51" speedRelative="0.90" departed="0" arrived="0" entered="1131" left="1131" laneChangedFrom="450" laneChangedTo="450"/>
        <edge id="2[1][0]" sampledSeconds="34797.55" traveltime="25.67" overlapTraveltime="27.86" density="25.70" laneDensity="8.57" occupancy="3.92" waitingTime="4181.00" timeLoss="8560.90" speed="10.39" speedRelative="0.75" departed="0" arrived="0" entered="1249" left="1249" laneChangedFrom="484" laneChangedTo="484"/>
        <edge id="2[1][1][0]" sampledSeconds="747.84" traveltime="0.03" overlapTraveltime="0.66" density="545.45" laneDensity="181.82" occupancy="5.03" waitingTime="16.00" timeLoss="334.80" speed="7.62" speedRelative="0.55" departed="0" arrived="0" entered="1139" left="1139" laneChangedFrom="1" laneChangedTo="1"/>
        <edge id="2[1][1][1]" sampledSeconds="1579.81" traveltime="1.02" overlapTraveltime="1.40" density="25.72" laneDensity="8.57" occupancy="3.01" waitingTime="0.00" timeLoss="127.86" speed="12.69" speedRelative="0.91" departed="0" arrived="0" entered="1130" left="1130" laneChangedFrom="11" laneChangedTo="11"/>
        <edge id="2[1][1][1]b" sampledSeconds="35346.55" traveltime="25.57" overlapTraveltime="25.94" density="22.83" laneDensity="7.61" occupancy="3.62" waitingTime="0.00" timeLoss="2654.43" speed="12.74" speedRelative="0.92" departed="0" arrived="1368" entered="1368" left="0" laneChangedFrom="391" laneChangedTo="391"/>
        <edge id="30" sampledSeconds="1129.18" traveltime="8.64" overlapTraveltime="9.33" density="2.45" laneDensity="2.45" occupancy="1.09" waitingTime="0.00" timeLoss="199.15" speed="10.91" speedRelative="0.79" departed="0" arrived="0" entered="121" left="121" laneChangedFrom="0" laneChangedTo="0"/>
        <edge id="31" sampledSeconds="4808.34" traveltime="38.79" overlapTraveltime="39.74" density="5.62" laneDensity="5.62" occupancy="2.65" waitingTime="2479.00" timeLoss="3156.64" speed="4.65" speedRelative="0.33" departed="0" arrived="0" entered="121" left="121" laneChangedFrom="0" laneChangedTo="0"/>
        <edge id="34[0]" sampledSeconds="4247.97" traveltime="15.24" overlapTraveltime="15.62" density="4.85" laneDensity="4.85" occupancy="2.25" waitingTime="0.00" timeLoss="528.27" speed="12.10" speedRelative="0.87" departed="0" arrived="0" entered="272" left="272" laneChangedFrom="0" laneChangedTo="0"/>
        <edge id="34[1][0]" sampledSeconds="6797.34" traveltime="18.55" overlapTraveltime="19.31" density="6.95" laneDensity="6.95" occupancy="3.24" waitingTime="164.00" timeLoss="1309.30" speed="10.90" speedRelative="0.78" departed="0" arrived="0" entered="352" left="352" laneChangedFrom="0" laneChangedTo="0"/>
        <edge id="34[1][1]" sampledSeconds="3132.16" traveltime="25.50" overlapTraveltime="26.54" density="3.57" laneDensity="3.57" occupancy="1.67" waitingTime="982.00" timeLoss="1472.24" speed="7.13" speedRelative="0.51" departed="0" arrived="0" entered="118" left="118" laneChangedFrom="0" laneChangedTo="0"/>
        <edge id="35[0]" sampledSeconds="6595.33" traveltime="22.23" overlapTraveltime="22.82" density="6.94" laneDensity="6.94" occupancy="3.26" waitingTime="1525.00" timeLoss="2316.26" speed="8.96" speedRelative="0.65" departed="0" arrived="0" entered="289" left="289" laneChangedFrom="0" laneChangedTo="0"/>
        <edge id="35[1][0]" sampledSeconds="7285.04" traveltime="29.29" overlapTraveltime="29.86" density="7.12" laneDensity="7.12" occupancy="3.38" waitingTime="2590.00" timeLoss="3421.73" speed="7.37" speedRelative="0.53" departed="0" arrived="0" entered="244" left="244" laneChangedFrom="0" laneChangedTo="0"/>
        <edge id="35[1][1][0]" sampledSeconds="335.08" traveltime="0.92" overlapTraveltime="1.30" density="6.43" laneDensity="6.43" occupancy="2.15" waitingTime="0.00" timeLoss="41.76" speed="12.16" speedRelative="0.88" departed="0" arrived="0" entered="258" left="258" laneChangedFrom="0" laneChangedTo="0"/>
        <edge id="35[1][1][1][1]" sampledSeconds="5128.41" traveltime="19.61" overlapTraveltime="19.97" density="4.17" laneDensity="4.17" occupancy="1.98" waitingTime="0.00" timeLoss="257.40" speed="13.19" speedRelative="0.95" departed="0" arrived="258" entered="258" left="0" laneChangedFrom="0" laneChangedTo="0"/>
        <edge id="36" sampledSeconds="7707.24" traveltime="36.78" overlapTraveltime="37.60" density="8.77" laneDensity="8.77" occupancy="4.16" waitingTime="3661.00" timeLoss="4871.63" speed="5.04" speedRelative="0.36" departed="0" arrived="0" entered="205" left="205" laneChangedFrom="0" laneChangedTo="0"/>
        <edge id="37" sampledSeconds="693.17" traveltime="15.27" overlapTraveltime="16.12" density="0.79" laneDensity="0.79" occupancy="0.37" waitingTime="2.00" timeLoss="91.95" speed="11.76" speedRelative="0.85" departed="0" arrived="0" entered="43" left="43" laneChangedFrom="0" laneChangedTo="0"/>
        <edge id="38[0]" sampledSeconds="8319.82" traveltime="12.70" overlapTraveltime="14.29" density="29.45" laneDensity="29.45" occupancy="12.85" waitingTime="3181.00" timeLoss="5596.84" speed="4.49" speedRelative="0.32" departed="0" arrived="0" entered="582" left="582" laneChangedFrom="0" laneChangedTo="0"/>
        <edge id="38[0]a" sampledSeconds="22658.19" traveltime="38.07" overlapTraveltime="38.93" density="72.40" laneDensity="72.40" occupancy="33.72" waitingTime="14208.00" timeLoss="19469.62" speed="1.81" speedRelative="0.13" departed="0" arrived="0" entered="582" left="582" laneChangedFrom="0" laneChangedTo="0"/>
        <edge id="38[1][0]" sampledSeconds="3661.77" traveltime="16.70" overlapTraveltime="17.11" density="3.92" laneDensity="3.92" occupancy="1.84" waitingTime="0.00" timeLoss="502.88" speed="11.77" speedRelative="0.85" departed="0" arrived="0" entered="214" left="214" laneChangedFrom="0" laneChangedTo="0"/>
        <edge id="38[1][1]" sampledSeconds="1487.24" traveltime="6.98" overlapTraveltime="7.44" density="3.96" laneDensity="3.96" occupancy="1.81" waitingTime="2.00" timeLoss="259.48" speed="11.26" speedRelative="0.81" departed="0" arrived="0" entered="200" left="200" laneChangedFrom="0" laneChangedTo="0"/>
        <edge id="38[1][1]a" sampledSeconds="8064.93" traveltime="39.49" overlapTraveltime="40.33" density="18.44" laneDensity="18.44" occupancy="8.78" waitingTime="5339.00" timeLoss="6581.51" speed="2.40" speedRelative="0.17" departed="0" arrived="0" entered="200" left="200" laneChangedFrom="0" laneChangedTo="0"/>
        <edge id="39[0]" sampledSeconds="25912.27" traveltime="52.69" overlapTraveltime="53.43" density="59.26" laneDensity="59.26" occupancy="28.18" waitingTime="17015.00" timeLoss="22502.92" speed="1.81" speedRelative="0.13" departed="0" arrived="0" entered="485" left="485" laneChangedFrom="0" laneChangedTo="0"/>
        <edge id="39[1][0]" sampledSeconds="31696.12" traveltime="49.73" overlapTraveltime="50.47" density="84.49" laneDensity="84.49" occupancy="39.54" waitingTime="20657.00" timeLoss="27822.81" speed="1.66" speedRelative="0.12" departed="0" arrived="0" entered="628" left="628" laneChangedFrom="0" laneChangedTo="0"/>
        <edge id="39[1][1][0]" sampledSeconds="96509.66" traveltime="181.32" overlapTraveltime="182.09" density="103.29" laneDensity="103.29" occupancy="49.55" waitingTime="62832.00" timeLoss="88704.29" speed="1.11" speedRelative="0.08" departed="0" arrived="0" entered="530" left="530" laneChangedFrom="0" laneChangedTo="0"/>
        <edge id="39[1][1][1]" sampledSeconds="2379.82" traveltime="5.37" overlapTraveltime="5.75" density="7.60" laneDensity="3.80" occupancy="1.70" waitingTime="0.00" timeLoss="264.46" speed="12.29" speedRelative="0.88" departed="0" arrived="0" entered="414" left="414" laneChangedFrom="37" laneChangedTo="37"/>
        <edge id="3[0]" sampledSeconds="34844.96" traveltime="45.74" overlapTraveltime="47.11" density="42.73" laneDensity="21.36" occupancy="9.92" waitingTime="18460.00" timeLoss="25282.50" speed="3.74" speedRelative="0.27" departed="740" arrived="0" entered="0" left="740" laneChangedFrom="309" laneChangedTo="309"/>
        <edge id="3[1]" sampledSeconds="23566.89" traveltime="14.29" overlapTraveltime="14.68" density="28.72" laneDensity="14.36" occupancy="6.71" waitingTime="0.00" timeLoss="2804.08" speed="12.08" speedRelative="0.87" departed="0" arrived="0" entered="1605" left="1605" laneChangedFrom="220" laneChangedTo="220"/>
        <edge id="3[1]b" sampledSeconds="31684.21" traveltime="19.48" overlapTraveltime="19.85" density="27.80" laneDensity="13.90" occupancy="6.59" waitingTime="0.00" timeLoss="3221.75" speed="12.32" speedRelative="0.89" departed="0" arrived="1605" entered="1605" left="0" laneChangedFrom="174" laneChangedTo="174"/>
        <edge id="40[0]" sampledSeconds="69675.09" traveltime="40.99" overlapTraveltime="41.50" density="71.43" laneDensity="35.71" occupancy="17.04" waitingTime="26607.00" timeLoss="44013.82" speed="5.06" speedRelative="0.36" departed="0" arrived="0" entered="1679" left="1679" laneChangedFrom="116" laneChangedTo="116"/>
        <edge id="40[1]" sampledSeconds="77862.80" traveltime="42.22" overlapTraveltime="42.60" density="32.91" laneDensity="16.45" occupancy="7.87" waitingTime="0.00" timeLoss="10969.26" speed="11.80" speedRelative="0.85" departed="0" arrived="1833" entered="1833" left="0" laneChangedFrom="276" laneChangedTo="276"/>
        <edge id="41" sampledSeconds="6102.41" traveltime="14.86" overlapTraveltime="15.26" density="8.16" laneDensity="4.08" occupancy="1.82" waitingTime="0.00" timeLoss="1394.22" speed="10.63" speedRelative="0.76" departed="400" arrived="0" entered="0" left="400" laneChangedFrom="0" laneChangedTo="0"/>
        <edge id="42" sampledSeconds="19094.21" traveltime="47.05" overlapTraveltime="47.74" density="93.56" laneDensity="31.19" occupancy="14.91" waitingTime="15525.00" timeLoss="17706.96" speed="1.00" speedRelative="0.07" departed="0" arrived="0" entered="400" left="400" laneChangedFrom="177" laneChangedTo="177"/>
        <edge id="43" sampledSeconds="59915.78" traveltime="66.61" overlapTraveltime="70.66" density="55.55" laneDensity="27.78" occupancy="12.66" waitingTime="32362.88" timeLoss="45633.64" speed="3.28" speedRelative="0.24" departed="848" arrived="0" entered="0" left="848" laneChangedFrom="361" laneChangedTo="361"/>
        <edge id="44" sampledSeconds="2896.90" traveltime="9.94" overlapTraveltime="10.31" density="4.94" laneDensity="2.47" occupancy="1.16" waitingTime="0.00" timeLoss="299.00" speed="12.42" speedRelative="0.89" departed="0" arrived="284" entered="284" left="0" laneChangedFrom="9" laneChangedTo="9"/>
        <edge id="45" sampledSeconds="16951.52" traveltime="40.18" overlapTraveltime="40.95" density="60.01" laneDensity="20.00" occupancy="9.54" waitingTime="13382.00" timeLoss="14991.75" speed="1.57" speedRelative="0.11" departed="0" arrived="0" entered="414" left="414" laneChangedFrom="74" laneChangedTo="74"/>
        <edge id="46" sampledSeconds="12253.98" traveltime="18.31" overlapTraveltime="18.97" density="12.26" laneDensity="12.26" occupancy="5.71" waitingTime="0.00" timeLoss="1897.81" speed="11.33" speedRelative="0.82" departed="0" arrived="0" entered="646" left="646" laneChangedFrom="0" laneChangedTo="0"/>
        <edge id="48" sampledSeconds="3898.49" traveltime="24.32" overlapTraveltime="25.32" density="8.24" laneDensity="2.75" occupancy="1.28" waitingTime="2078.00" timeLoss="2663.44" speed="4.12" speedRelative="0.30" departed="0" arrived="0" entered="154" left="154" laneChangedFrom="102" laneChangedTo="102"/>
        <edge id="49[0]" sampledSeconds="8597.39" traveltime="15.52" overlapTraveltime="15.92" density="9.76" laneDensity="9.76" occupancy="4.57" waitingTime="0.00" timeLoss="1145.15" speed="11.94" speedRelative="0.86" departed="0" arrived="0" entered="540" left="540" laneChangedFrom="0" laneChangedTo="0"/>
        <edge id="49[1]" sampledSeconds="4321.45" traveltime="7.04" overlapTraveltime="7.56" density="11.36" laneDensity="11.36" occupancy="5.14" waitingTime="25.00" timeLoss="797.93" speed="11.23" speedRelative="0.81" departed="0" arrived="0" entered="572" left="572" laneChangedFrom="0" laneChangedTo="0"/>
        <edge id="4[0]" sampledSeconds="58180.12" traveltime="44.15" overlapTraveltime="44.82" density="93.20" laneDensity="46.60" occupancy="22.18" waitingTime="30801.00" timeLoss="45281.80" speed="3.04" speedRelative="0.22" departed="0" arrived="0" entered="1298" left="1298" laneChangedFrom="165" laneChangedTo="165"/>
        <edge id="4[1][1][0]" sampledSeconds="134592.00" traveltime="107.18" overlapTraveltime="108.46" density="166.29" laneDensity="83.15" occupancy="39.64" waitingTime="86814.51" timeLoss="118791.35" speed="1.61" speedRelative="0.12" departed="0" arrived="0" entered="1241" left="1241" laneChangedFrom="270" laneChangedTo="270"/>
        <edge id="4[1][1][1]" sampledSeconds="24781.46" traveltime="14.36" overlapTraveltime="14.74" density="30.39" laneDensity="15.19" occupancy="7.16" waitingTime="0.00" timeLoss="3201.03" speed="11.97" speedRelative="0.86" departed="0" arrived="1695" entered="1695" left="0" laneChangedFrom="42" laneChangedTo="42"/>
        <edge id="50[0]" sampledSeconds="1763.12" traveltime="8.46" overlapTraveltime="9.23" density="3.96" laneDensity="3.96" occupancy="1.79" waitingTime="0.00" timeLoss="316.12" speed="10.67" speedRelative="0.77" departed="0" arrived="0" entered="191" left="191" laneChangedFrom="0" laneChangedTo="0"/>
        <edge id="50[1]" sampledSeconds="314.03" traveltime="6.17" overlapTraveltime="6.54" density="0.83" laneDensity="0.83" occupancy="0.37" waitingTime="0.00" timeLoss="20.73" speed="12.97" speedRelative="0.93" departed="0" arrived="0" entered="48" left="48" laneChangedFrom="0" laneChangedTo="0"/>
        <edge id="50[1]a" sampledSeconds="1169.20" traveltime="23.04" overlapTraveltime="24.36" density="1.33" laneDensity="1.33" occupancy="0.62" waitingTime="325.00" timeLoss="512.46" speed="7.80" speedRelative="0.56" departed="0" arrived="0" entered="48" left="48" laneChangedFrom="0" laneChangedTo="0"/>
        <edge id="51" sampledSeconds="30704.44" traveltime="40.72" overlapTraveltime="41.49" density="101.60" laneDensity="50.80" occupancy="23.62" waitingTime="22040.29" timeLoss="26768.04" speed="1.65" speedRelative="0.12" departed="0" arrived="0" entered="740" left="740" laneChangedFrom="0" laneChangedTo="0"/>
        <edge id="52" sampledSeconds="46039.11" traveltime="60.05" overlapTraveltime="62.21" density="37.70" laneDensity="37.70" occupancy="17.44" waitingTime="21322.00" timeLoss="31902.88" speed="4.21" speedRelative="0.30" departed="740" arrived="0" entered="0" left="740" laneChangedFrom="0" laneChangedTo="0"/>
        <edge id="53" sampledSeconds="4358.68" traveltime="7.06" overlapTraveltime="7.70" density="14.42" laneDensity="7.21" occupancy="3.22" waitingTime="4.00" timeLoss="1475.36" speed="8.88" speedRelative="0.64" departed="0" arrived="0" entered="566" left="566" laneChangedFrom="28" laneChangedTo="28"/>
        <edge id="53a" sampledSeconds="12559.92" traveltime="21.93" overlapTraveltime="22.31" density="10.27" laneDensity="10.27" occupancy="4.86" waitingTime="0.00" timeLoss="1854.10" speed="11.75" speedRelative="0.85" departed="0" arrived="566" entered="566" left="0" laneChangedFrom="0" laneChangedTo="0"/>
        <edge id="55" sampledSeconds="21880.61" traveltime="37.36" overlapTraveltime="38.26" density="49.13" laneDensity="24.56" occupancy="11.64" waitingTime="9763.00" timeLoss="17782.26" speed="2.58" speedRelative="0.19" departed="0" arrived="0" entered="572" left="572" laneChangedFrom="110" laneChangedTo="110"/>
        <edge id="56[0]" sampledSeconds="132143.32" traveltime="72.61" overlapTraveltime="73.54" density="129.22" laneDensity="64.61" occupancy="30.87" waitingTime="59283.00" timeLoss="103190.05" speed="2.99" speedRelative="0.22" departed="0" arrived="0" entered="1797" left="1797" laneChangedFrom="420" laneChangedTo="420"/>
        <edge id="56[1][0]" sampledSeconds="41140.57" traveltime="25.65" overlapTraveltime="26.42" density="43.32" laneDensity="14.44" occupancy="6.82" waitingTime="11455.00" timeLoss="17866.22" speed="7.74" speedRelative="0.56" departed="0" arrived="0" entered="1557" left="1557" laneChangedFrom="752" laneChangedTo="752"/>
        <edge id="56[1][1]" sampledSeconds="35985.36" traveltime="24.35" overlapTraveltime="24.89" density="81.30" laneDensity="40.65" occupancy="19.25" waitingTime="17669.00" timeLoss="25588.70" speed="3.93" speedRelative="0.28" departed="0" arrived="0" entered="1446" left="1446" laneChangedFrom="115" laneChangedTo="115"/>
        <edge id="5[1][0]+66" sampledSeconds="7609.23" traveltime="5.34" overlapTraveltime="5.83" density="37.74" laneDensity="18.87" occupancy="8.44" waitingTime="1695.00" timeLoss="3103.48" speed="8.11" speedRelative="0.58" departed="0" arrived="0" entered="1306" left="1306" laneChangedFrom="124" laneChangedTo="124"/>
        <edge id="5[1][1][1]" sampledSeconds="13701.25" traveltime="9.65" overlapTraveltime="10.27" density="31.70" laneDensity="10.57" occupancy="4.85" waitingTime="1139.00" timeLoss="4299.56" speed="9.33" speedRelative="0.67" departed="0" arrived="0" entered="1335" left="1335" laneChangedFrom="319" laneChangedTo="319"/>
        <edge id="6" sampledSeconds="11959.11" traveltime="20.77" overlapTraveltime="21.24" density="10.80" laneDensity="5.40" occupancy="2.45" waitingTime="41.00" timeLoss="2211.67" speed="11.19" speedRelative="0.81" departed="563" arrived="0" entered="0" left="563" laneChangedFrom="16" laneChangedTo="16"/>
        <edge id="63[0]" sampledSeconds="15933.14" traveltime="11.91" overlapTraveltime="12.28" density="28.33" laneDensity="9.44" occupancy="4.11" waitingTime="4.00" timeLoss="4320.90" speed="10.03" speedRelative="0.72" departed="1298" arrived="0" entered="0" left="1298" laneChangedFrom="174" laneChangedTo="174"/>
        <edge id="63[1]" sampledSeconds="33072.76" traveltime="25.03" overlapTraveltime="25.48" density="38.03" laneDensity="12.68" occupancy="6.02" waitingTime="10307.00" timeLoss="15361.76" speed="7.37" speedRelative="0.53" departed="0" arrived="0" entered="1298" left="1298" laneChangedFrom="266" laneChangedTo="266"/>
        <edge id="65" sampledSeconds="14487.44" traveltime="55.14" overlapTraveltime="55.94" density="11.72" laneDensity="11.72" occupancy="5.54" waitingTime="7102.00" timeLoss="9426.97" speed="4.73" speedRelative="0.34" departed="259" arrived="0" entered="0" left="259" laneChangedFrom="0" laneChangedTo="0"/>
        <edge id="7" sampledSeconds="4195.53" traveltime="6.86" overlapTraveltime="7.46" density="24.06" laneDensity="8.02" occupancy="3.61" waitingTime="1632.00" timeLoss="2352.82" speed="5.57" speedRelative="0.40" departed="0" arrived="0" entered="563" left="563" laneChangedFrom="0" laneChangedTo="0"/>