<?xml version="1.0" encoding="UTF-8"?>

<configuration xmlns:xsi="http://www.w3.org/2001/XMLSchema-instance" xsi:noNamespaceSchemaLocation="http://sumo.dlr.de/xsd/sumoConfiguration.xsd">
    <input>
        <net-file value="pasubio_buslanes.net.xml"/>
        <route-files value="pasubio.rou.xml"/>
       <!-- <additional-files value="pasubio_vtypes.add.xml,pasubio_bus_stops.add.xml,pasubio_busses.rou.xml,pasubio_detectors.add.xml,pasubio_tls.add.xml"/> -->
        <additional-files value="pasubio_vtypes.add.xml,pasubio_tls.add.xml"/>
    </input>
    
    <time>
        <step-length value="1" />
    </time>


    <output>
       <!-- <tripinfo-output value="tripinfos.xml"/> -->
        <summary-output value="summary.xml" />
        <edgedata-output value="edgedata.xml" />
    </output>
    
    <report>
        <log value="sumo_log.txt"/>
        <no-step-log value="false"/>
        <step-log.period value="100" />
    </report>
    
</configuration>
