<?xml version="1.0" encoding="UTF-8"?>

<!-- generated on 2023-02-02 15:15:50 by Eclipse SUMO sumo Version 1.15.0
<configuration xmlns:xsi="http://www.w3.org/2001/XMLSchema-instance" xsi:noNamespaceSchemaLocation="http://sumo.dlr.de/xsd/sumoConfiguration.xsd">

    <input>
        <net-file value="pasubio_buslanes.net.xml"/>
        <route-files value="pasubio.rou.xml"/>
        <additional-files value="pasubio_vtypes.add.xml,pasubio_tls.add.xml"/>
    </input>

    <output>
        <summary-output value="summary.xml"/>
        <tripinfo-output value="tripinfos.xml"/>
    </output>

    <time>
        <step-length value="1"/>
    </time>

    <report>
        <log value="sumo_log.txt"/>
        <no-step-log value="false"/>
        <step-log.period value="100"/>
    </report>

</configuration>
-->

<tripinfos xmlns:xsi="http://www.w3.org/2001/XMLSchema-instance" xsi:noNamespaceSchemaLocation="http://sumo.dlr.de/xsd/tripinfo_file.xsd">
    <tripinfo id="Pertini_20_1" depart="2.00" departLane="63[0]_2" departPos="0.00" departSpeed="0.00" departDelay="0.00" arrival="75.00" arrivalLane="4[1][1][1]_1" arrivalPos="170.54" arrivalSpeed="13.73" duration="73.00" routeLength="895.82" waitingTime="0.00" waitingCount="0" stopTime="0.00" timeLoss="11.37" rerouteNo="0" devices="tripinfo_Pertini_20_1" vType="passenger1" speedFactor="1.05" vaporized=""/>
    <tripinfo id="Pertini_20_0" depart="0.00" departLane="63[0]_1" departPos="0.00" departSpeed="0.00" departDelay="0.00" arrival="76.00" arrivalLane="4[1][1][1]_0" arrivalPos="170.54" arrivalSpeed="13.74" duration="76.00" routeLength="895.82" waitingTime="4.00" waitingCount="1" stopTime="0.00" timeLoss="15.50" rerouteNo="0" devices="tripinfo_Pertini_20_0" vType="passenger1" speedFactor="1.08" vaporized=""/>
    <tripinfo id="Pertini_20_2" depart="4.00" departLane="63[0]_1" departPos="0.00" departSpeed="0.00" departDelay="0.00" arrival="78.00" arrivalLane="4[1][1][1]_0" arrivalPos="170.54" arrivalSpeed="13.41" duration="74.00" routeLength="895.82" waitingTime="0.00" waitingCount="0" stopTime="0.00" timeLoss="10.43" rerouteNo="0" devices="tripinfo_Pertini_20_2" vType="passenger2b" speedFactor="1.02" vaporized=""/>
    <tripinfo id="Pertini_20_7" depart="15.00" departLane="63[0]_2" departPos="0.00" departSpeed="0.00" departDelay="0.00" arrival="80.00" arrivalLane="4[1][1][1]_0" arrivalPos="170.54" arrivalSpeed="13.95" duration="65.00" routeLength="882.71" waitingTime="0.00" waitingCount="0" stopTime="0.00" timeLoss="6.40" rerouteNo="0" devices="tripinfo_Pertini_20_7" vType="passenger1" speedFactor="1.10" vaporized=""/>
    <tripinfo id="Prati_Capraia_10_0" depart="0.00" departLane="3[0]_0" departPos="0.00" departSpeed="0.00" departDelay="0.00" arrival="81.00" arrivalLane="10_0" arrivalPos="223.30" arrivalSpeed="11.64" duration="81.00" routeLength="409.63" waitingTime="39.00" waitingCount="1" stopTime="0.00" timeLoss="47.93" rerouteNo="0" devices="tripinfo_Prati_Capraia_10_0" vType="passenger2b" speedFactor="0.94" vaporized=""/>
    <tripinfo id="Pertini_20_10" depart="21.00" departLane="63[0]_2" departPos="0.00" departSpeed="0.00" departDelay="0.00" arrival="84.00" arrivalLane="4[1][1][1]_0" arrivalPos="170.54" arrivalSpeed="15.33" duration="63.00" routeLength="882.71" waitingTime="0.00" waitingCount="0" stopTime="0.00" timeLoss="5.24" rerouteNo="0" devices="tripinfo_Pertini_20_10" vType="passenger1" speedFactor="1.12" vaporized=""/>
    <tripinfo id="Prati_Capraia_10_1" depart="4.00" departLane="3[0]_0" departPos="0.00" departSpeed="0.00" departDelay="0.00" arrival="86.00" arrivalLane="10_0" arrivalPos="223.30" arrivalSpeed="10.34" duration="82.00" routeLength="409.63" waitingTime="34.00" waitingCount="1" stopTime="0.00" timeLoss="43.72" rerouteNo="0" devices="tripinfo_Prati_Capraia_10_1" vType="passenger5" speedFactor="0.80" vaporized=""/>
    <tripinfo id="Prati_Capraia_10_7" depart="34.00" departLane="3[0]_0" departPos="0.00" departSpeed="0.00" departDelay="0.00" arrival="87.00" arrivalLane="10_0" arrivalPos="223.30" arrivalSpeed="13.14" duration="53.00" routeLength="409.63" waitingTime="11.00" waitingCount="1" stopTime="0.00" timeLoss="23.05" rerouteNo="0" devices="tripinfo_Prati_Capraia_10_7" vType="passenger3" speedFactor="1.02" vaporized=""/>
    <tripinfo id="Pertini_20_11" depart="23.00" departLane="63[0]_1" departPos="0.00" departSpeed="0.00" departDelay="0.00" arrival="88.00" arrivalLane="4[1][1][1]_1" arrivalPos="170.54" arrivalSpeed="14.87" duration="65.00" routeLength="882.71" waitingTime="0.00" waitingCount="0" stopTime="0.00" timeLoss="5.97" rerouteNo="0" devices="tripinfo_Pertini_20_11" vType="passenger1" speedFactor="1.09" vaporized=""/>
    <tripinfo id="Certosa_9_0" depart="0.00" departLane="22[0]_1" departPos="0.00" departSpeed="0.00" departDelay="0.00" arrival="91.00" arrivalLane="2[1][1][1]b_2" arrivalPos="324.74" arrivalSpeed="14.12" duration="91.00" routeLength="602.57" waitingTime="38.00" waitingCount="1" stopTime="0.00" timeLoss="49.79" rerouteNo="0" devices="tripinfo_Certosa_9_0" vType="passenger1" speedFactor="1.08" vaporized=""/>
    <tripinfo id="Pertini_20_9" depart="19.00" departLane="63[0]_1" departPos="0.00" departSpeed="0.00" departDelay="0.00" arrival="93.00" arrivalLane="4[1][1][1]_0" arrivalPos="170.54" arrivalSpeed="12.21" duration="74.00" routeLength="895.82" waitingTime="0.00" waitingCount="0" stopTime="0.00" timeLoss="6.02" rerouteNo="0" devices="tripinfo_Pertini_20_9" vType="passenger1" speedFactor="0.96" vaporized=""/>
    <tripinfo id="Prati_Capraia_100_2" depart="9.00" departLane="3[0]_1" departPos="0.00" departSpeed="0.00" departDelay="0.00" arrival="95.00" arrivalLane="3[1]b_0" arrivalPos="238.77" arrivalSpeed="13.29" duration="86.00" routeLength="624.48" waitingTime="30.00" waitingCount="1" stopTime="0.00" timeLoss="41.86" rerouteNo="0" devices="tripinfo_Prati_Capraia_100_2" vType="passenger5" speedFactor="1.02" vaporized=""/>
    <tripinfo id="Prati_Capraia_100_3" depart="14.00" departLane="3[0]_0" departPos="0.00" departSpeed="0.00" departDelay="0.00" arrival="96.00" arrivalLane="3[1]b_1" arrivalPos="238.77" arrivalSpeed="13.91" duration="82.00" routeLength="624.48" waitingTime="27.00" waitingCount="1" stopTime="0.00" timeLoss="39.40" rerouteNo="0" devices="tripinfo_Prati_Capraia_100_3" vType="passenger2a" speedFactor="1.06" vaporized=""/>
    <tripinfo id="Pertini_20_12" depart="25.00" departLane="63[0]_2" departPos="0.00" departSpeed="0.00" departDelay="0.00" arrival="96.00" arrivalLane="4[1][1][1]_0" arrivalPos="170.54" arrivalSpeed="13.20" duration="71.00" routeLength="895.82" waitingTime="0.00" waitingCount="0" stopTime="0.00" timeLoss="6.39" rerouteNo="0" devices="tripinfo_Pertini_20_12" vType="passenger1" speedFactor="1.01" vaporized=""/>
    <tripinfo id="Pertini_20_14" depart="30.00" departLane="63[0]_1" departPos="0.00" departSpeed="0.00" departDelay="0.00" arrival="98.00" arrivalLane="4[1][1][1]_0" arrivalPos="170.54" arrivalSpeed="14.69" duration="68.00" routeLength="895.82" waitingTime="0.00" waitingCount="0" stopTime="0.00" timeLoss="6.61" rerouteNo="0" devices="tripinfo_Pertini_20_14" vType="passenger1" speedFactor="1.06" vaporized=""/>
    <tripinfo id="Pertini_20_15" depart="32.00" departLane="63[0]_2" departPos="0.00" departSpeed="0.00" departDelay="0.00" arrival="100.00" arrivalLane="4[1][1][1]_0" arrivalPos="170.54" arrivalSpeed="13.16" duration="68.00" routeLength="882.71" waitingTime="0.00" waitingCount="0" stopTime="0.00" timeLoss="5.72" rerouteNo="0" devices="tripinfo_Pertini_20_15" vType="passenger1" speedFactor="1.03" vaporized=""/>
    <tripinfo id="Prati_Capraia_100_5" depart="24.00" departLane="3[0]_0" departPos="0.00" departSpeed="0.00" departDelay="0.00" arrival="101.00" arrivalLane="3[1]b_0" arrivalPos="238.77" arrivalSpeed="12.37" duration="77.00" routeLength="624.48" waitingTime="18.00" waitingCount="1" stopTime="0.00" timeLoss="30.06" rerouteNo="0" devices="tripinfo_Prati_Capraia_100_5" vType="passenger2b" speedFactor="0.98" vaporized=""/>
    <tripinfo id="Prati_Capraia_100_9" depart="43.00" departLane="3[0]_0" departPos="0.00" departSpeed="0.00" departDelay="0.00" arrival="101.00" arrivalLane="3[1]b_1" arrivalPos="238.77" arrivalSpeed="16.74" duration="58.00" routeLength="624.48" waitingTime="4.00" waitingCount="1" stopTime="0.00" timeLoss="20.29" rerouteNo="0" devices="tripinfo_Prati_Capraia_100_9" vType="passenger2a" speedFactor="1.21" vaporized=""/>
    <tripinfo id="Prati_Capraia_100_4" depart="19.00" departLane="3[0]_1" departPos="0.00" departSpeed="0.00" departDelay="0.00" arrival="103.00" arrivalLane="3[1]b_0" arrivalPos="238.77" arrivalSpeed="12.50" duration="84.00" routeLength="624.48" waitingTime="24.00" waitingCount="1" stopTime="0.00" timeLoss="33.78" rerouteNo="0" devices="tripinfo_Prati_Capraia_100_4" vType="passenger2a" speedFactor="0.91" vaporized=""/>
    <tripinfo id="Gandhi_80_11" depart="17.00" departLane="1[0]_0" departPos="0.00" departSpeed="0.00" departDelay="0.00" arrival="105.00" arrivalLane="21_0" arrivalPos="89.26" arrivalSpeed="12.85" duration="88.00" routeLength="512.45" waitingTime="39.00" waitingCount="1" stopTime="0.00" timeLoss="50.14" rerouteNo="0" devices="tripinfo_Gandhi_80_11" vType="passenger1" speedFactor="1.00" vaporized=""/>
    <tripinfo id="Pertini_20_17" depart="36.00" departLane="63[0]_2" departPos="0.00" departSpeed="0.00" departDelay="0.00" arrival="107.00" arrivalLane="4[1][1][1]_0" arrivalPos="170.54" arrivalSpeed="12.75" duration="71.00" routeLength="882.71" waitingTime="0.00" waitingCount="0" stopTime="0.00" timeLoss="6.30" rerouteNo="0" devices="tripinfo_Pertini_20_17" vType="passenger1" speedFactor="0.99" vaporized=""/>
    <tripinfo id="Prati_Capraia_100_10" depart="48.00" departLane="3[0]_1" departPos="0.00" departSpeed="0.00" departDelay="0.00" arrival="109.00" arrivalLane="3[1]b_0" arrivalPos="238.77" arrivalSpeed="11.73" duration="61.00" routeLength="624.48" waitingTime="0.00" waitingCount="0" stopTime="0.00" timeLoss="9.51" rerouteNo="0" devices="tripinfo_Prati_Capraia_100_10" vType="passenger1" speedFactor="0.88" vaporized=""/>
    <tripinfo id="Prati_Capraia_100_8" depart="38.00" departLane="3[0]_1" departPos="0.00" departSpeed="0.00" departDelay="0.00" arrival="110.00" arrivalLane="3[1]b_1" arrivalPos="238.77" arrivalSpeed="15.52" duration="72.00" routeLength="624.48" waitingTime="12.00" waitingCount="2" stopTime="0.00" timeLoss="31.22" rerouteNo="0" devices="tripinfo_Prati_Capraia_100_8" vType="passenger2a" speedFactor="1.12" vaporized=""/>
    <tripinfo id="Prati_Capraia_100_11" depart="53.00" departLane="3[0]_0" departPos="0.00" departSpeed="0.00" departDelay="0.00" arrival="112.00" arrivalLane="3[1]b_0" arrivalPos="238.77" arrivalSpeed="11.54" duration="59.00" routeLength="624.48" waitingTime="0.00" waitingCount="0" stopTime="0.00" timeLoss="9.69" rerouteNo="0" devices="tripinfo_Prati_Capraia_100_11" vType="passenger1" speedFactor="0.92" vaporized=""/>
    <tripinfo id="Prati_Capraia_100_13" depart="63.00" departLane="3[0]_0" departPos="0.00" departSpeed="0.00" departDelay="0.00" arrival="114.00" arrivalLane="3[1]b_0" arrivalPos="238.77" arrivalSpeed="13.78" duration="51.00" routeLength="624.48" waitingTime="0.00" waitingCount="0" stopTime="0.00" timeLoss="6.77" rerouteNo="0" devices="tripinfo_Prati_Capraia_100_13" vType="passenger2b" speedFactor="1.03" vaporized=""/>
    <tripinfo id="Pertini_20_16" depart="34.00" departLane="63[0]_1" departPos="0.00" departSpeed="0.00" departDelay="0.00" arrival="116.00" arrivalLane="4[1][1][1]_0" arrivalPos="170.54" arrivalSpeed="11.45" duration="82.00" routeLength="895.82" waitingTime="0.00" waitingCount="0" stopTime="0.00" timeLoss="7.11" rerouteNo="0" devices="tripinfo_Pertini_20_16" vType="passenger2a" speedFactor="0.87" vaporized=""/>
    <tripinfo id="Saffi_30_4" depart="11.00" departLane="12_0" departPos="0.00" departSpeed="0.00" departDelay="0.00" arrival="117.00" arrivalLane="70_0" arrivalPos="59.87" arrivalSpeed="13.93" duration="106.00" routeLength="1144.73" waitingTime="11.00" waitingCount="1" stopTime="0.00" timeLoss="24.91" rerouteNo="0" devices="tripinfo_Saffi_30_4" vType="passenger1" speedFactor="1.03" vaporized=""/>
    <tripinfo id="Sabotino_9_3" depart="27.00" departLane="41_0" departPos="0.00" departSpeed="0.00" departDelay="0.00" arrival="118.00" arrivalLane="2[1][1][1]b_1" arrivalPos="324.74" arrivalSpeed="14.47" duration="91.00" routeLength="1123.23" waitingTime="0.00" waitingCount="0" stopTime="0.00" timeLoss="14.21" rerouteNo="0" devices="tripinfo_Sabotino_9_3" vType="passenger1" speedFactor="1.06" vaporized=""/>
    <tripinfo id="Pertini_20_22" depart="47.00" departLane="63[0]_2" departPos="0.00" departSpeed="0.00" departDelay="0.00" arrival="118.00" arrivalLane="4[1][1][1]_0" arrivalPos="170.54" arrivalSpeed="15.56" duration="71.00" routeLength="882.71" waitingTime="0.00" waitingCount="0" stopTime="0.00" timeLoss="16.18" rerouteNo="0" devices="tripinfo_Pertini_20_22" vType="passenger1" speedFactor="1.18" vaporized=""/>
    <tripinfo id="Pertini_20_21" depart="45.00" departLane="63[0]_1" departPos="0.00" departSpeed="0.00" departDelay="0.00" arrival="119.00" arrivalLane="4[1][1][1]_0" arrivalPos="170.54" arrivalSpeed="13.65" duration="74.00" routeLength="882.71" waitingTime="0.00" waitingCount="0" stopTime="0.00" timeLoss="12.62" rerouteNo="0" devices="tripinfo_Pertini_20_21" vType="passenger4" speedFactor="1.04" vaporized=""/>
    <tripinfo id="Sabotino_9_0" depart="0.00" departLane="41_0" departPos="0.00" departSpeed="0.00" departDelay="0.00" arrival="120.00" arrivalLane="2[1][1][1]b_0" arrivalPos="324.74" arrivalSpeed="13.64" duration="120.00" routeLength="1123.23" waitingTime="27.00" waitingCount="1" stopTime="0.00" timeLoss="39.56" rerouteNo="0" devices="tripinfo_Sabotino_9_0" vType="passenger1" speedFactor="1.02" vaporized=""/>
    <tripinfo id="Prati_Capraia_100_12" depart="58.00" departLane="3[0]_1" departPos="0.00" departSpeed="0.00" departDelay="0.00" arrival="120.00" arrivalLane="3[1]b_0" arrivalPos="238.77" arrivalSpeed="12.84" duration="62.00" routeLength="624.48" waitingTime="3.00" waitingCount="1" stopTime="0.00" timeLoss="15.39" rerouteNo="0" devices="tripinfo_Prati_Capraia_100_12" vType="passenger3" speedFactor="0.97" vaporized=""/>
    <tripinfo id="Sabotino_9_2" depart="18.00" departLane="41_0" departPos="0.00" departSpeed="0.00" departDelay="0.00" arrival="121.00" arrivalLane="2[1][1][1]b_1" arrivalPos="324.74" arrivalSpeed="13.16" duration="103.00" routeLength="1123.23" waitingTime="7.00" waitingCount="1" stopTime="0.00" timeLoss="21.68" rerouteNo="0" devices="tripinfo_Sabotino_9_2" vType="passenger5" speedFactor="1.00" vaporized=""/>
    <tripinfo id="Prati_Capraia_100_14" depart="68.00" departLane="3[0]_1" departPos="0.00" departSpeed="0.00" departDelay="0.00" arrival="121.00" arrivalLane="3[1]b_1" arrivalPos="238.77" arrivalSpeed="13.66" duration="53.00" routeLength="624.48" waitingTime="0.00" waitingCount="0" stopTime="0.00" timeLoss="7.56" rerouteNo="0" devices="tripinfo_Prati_Capraia_100_14" vType="passenger4" speedFactor="1.00" vaporized=""/>
    <tripinfo id="Sabotino_9_1" depart="9.00" departLane="41_0" departPos="0.00" departSpeed="0.00" departDelay="0.00" arrival="124.00" arrivalLane="2[1][1][1]b_0" arrivalPos="324.74" arrivalSpeed="12.01" duration="115.00" routeLength="1123.23" waitingTime="16.00" waitingCount="1" stopTime="0.00" timeLoss="28.82" rerouteNo="0" devices="tripinfo_Sabotino_9_1" vType="passenger2a" speedFactor="0.94" vaporized=""/>
    <tripinfo id="Gandhi_80_45" depart="70.00" departLane="1[0]_0" departPos="0.00" departSpeed="0.00" departDelay="0.00" arrival="124.00" arrivalLane="21_0" arrivalPos="89.26" arrivalSpeed="12.06" duration="54.00" routeLength="512.45" waitingTime="0.00" waitingCount="0" stopTime="0.00" timeLoss="12.35" rerouteNo="0" devices="tripinfo_Gandhi_80_45" vType="passenger2a" speedFactor="0.92" vaporized=""/>
    <tripinfo id="Pertini_20_19" depart="40.00" departLane="63[0]_2" departPos="0.00" departSpeed="0.00" departDelay="0.00" arrival="125.00" arrivalLane="4[1][1][1]_0" arrivalPos="170.54" arrivalSpeed="10.64" duration="85.00" routeLength="895.82" waitingTime="0.00" waitingCount="0" stopTime="0.00" timeLoss="7.07" rerouteNo="0" devices="tripinfo_Pertini_20_19" vType="passenger3" speedFactor="0.84" vaporized=""/>
    <tripinfo id="Pertini_20_25" depart="53.00" departLane="63[0]_1" departPos="0.00" departSpeed="0.00" departDelay="0.00" arrival="126.00" arrivalLane="4[1][1][1]_0" arrivalPos="170.54" arrivalSpeed="12.71" duration="73.00" routeLength="895.82" waitingTime="0.00" waitingCount="0" stopTime="0.00" timeLoss="9.19" rerouteNo="0" devices="tripinfo_Pertini_20_25" vType="passenger1" speedFactor="1.01" vaporized=""/>
    <tripinfo id="Pertini_20_27" depart="58.00" departLane="63[0]_1" departPos="0.00" departSpeed="0.00" departDelay="0.00" arrival="126.00" arrivalLane="4[1][1][1]_1" arrivalPos="170.54" arrivalSpeed="15.86" duration="68.00" routeLength="895.82" waitingTime="1.00" waitingCount="1" stopTime="0.00" timeLoss="13.02" rerouteNo="0" devices="tripinfo_Pertini_20_27" vType="passenger1" speedFactor="1.18" vaporized=""/>
    <tripinfo id="Sabotino_9_4" depart="36.00" departLane="41_0" departPos="0.00" departSpeed="0.00" departDelay="0.00" arrival="127.00" arrivalLane="2[1][1][1]b_0" arrivalPos="324.74" arrivalSpeed="13.03" duration="91.00" routeLength="1123.23" waitingTime="0.00" waitingCount="0" stopTime="0.00" timeLoss="7.84" rerouteNo="0" devices="tripinfo_Sabotino_9_4" vType="passenger4" speedFactor="0.98" vaporized=""/>
    <tripinfo id="Prati_Capraia_10_19" depart="92.00" departLane="3[0]_0" departPos="0.00" departSpeed="0.00" departDelay="0.00" arrival="127.00" arrivalLane="10_0" arrivalPos="223.30" arrivalSpeed="13.60" duration="35.00" routeLength="409.63" waitingTime="0.00" waitingCount="0" stopTime="0.00" timeLoss="6.01" rerouteNo="0" devices="tripinfo_Prati_Capraia_10_19" vType="passenger3" speedFactor="1.05" vaporized=""/>
    <tripinfo id="Pertini_20_18" depart="38.00" departLane="63[0]_1" departPos="0.00" departSpeed="0.00" departDelay="0.00" arrival="128.00" arrivalLane="4[1][1][1]_0" arrivalPos="170.54" arrivalSpeed="12.14" duration="90.00" routeLength="895.82" waitingTime="8.00" waitingCount="1" stopTime="0.00" timeLoss="20.33" rerouteNo="0" devices="tripinfo_Pertini_20_18" vType="passenger3" speedFactor="0.93" vaporized=""/>
    <tripinfo id="Pertini_10_20" depart="43.00" departLane="63[0]_2" departPos="0.00" departSpeed="0.00" departDelay="0.00" arrival="129.00" arrivalLane="10_0" arrivalPos="223.30" arrivalSpeed="15.12" duration="86.00" routeLength="935.05" waitingTime="14.00" waitingCount="1" stopTime="0.00" timeLoss="25.07" rerouteNo="0" devices="tripinfo_Pertini_10_20" vType="passenger3" speedFactor="1.13" vaporized=""/>
    <tripinfo id="Pertini_20_28" depart="60.00" departLane="63[0]_2" departPos="0.00" departSpeed="0.00" departDelay="0.00" arrival="129.00" arrivalLane="4[1][1][1]_1" arrivalPos="170.54" arrivalSpeed="13.65" duration="69.00" routeLength="895.82" waitingTime="0.00" waitingCount="0" stopTime="0.00" timeLoss="7.99" rerouteNo="0" devices="tripinfo_Pertini_20_28" vType="passenger1" speedFactor="1.07" vaporized=""/>
    <tripinfo id="Pertini_20_26" depart="55.00" departLane="63[0]_2" departPos="0.00" departSpeed="0.00" departDelay="0.00" arrival="130.00" arrivalLane="4[1][1][1]_0" arrivalPos="170.54" arrivalSpeed="13.06" duration="75.00" routeLength="895.82" waitingTime="0.00" waitingCount="0" stopTime="0.00" timeLoss="7.73" rerouteNo="0" devices="tripinfo_Pertini_20_26" vType="passenger5" speedFactor="0.97" vaporized=""/>
    <tripinfo id="Prati_Capraia_100_18" depart="87.00" departLane="3[0]_0" departPos="0.00" departSpeed="0.00" departDelay="0.00" arrival="130.00" arrivalLane="3[1]b_1" arrivalPos="238.77" arrivalSpeed="15.66" duration="43.00" routeLength="624.48" waitingTime="0.00" waitingCount="0" stopTime="0.00" timeLoss="5.63" rerouteNo="0" devices="tripinfo_Prati_Capraia_100_18" vType="passenger1" speedFactor="1.21" vaporized=""/>
    <tripinfo id="Prati_Capraia_100_16" depart="77.00" departLane="3[0]_0" departPos="0.00" departSpeed="0.00" departDelay="0.00" arrival="132.00" arrivalLane="3[1]b_0" arrivalPos="238.77" arrivalSpeed="12.85" duration="55.00" routeLength="624.48" waitingTime="0.00" waitingCount="0" stopTime="0.00" timeLoss="5.82" rerouteNo="0" devices="tripinfo_Prati_Capraia_100_16" vType="passenger1" speedFactor="0.93" vaporized=""/>
    <tripinfo id="Pertini_102_24" depart="51.00" departLane="13[0]_0" departPos="0.00" departSpeed="0.00" departDelay="0.00" arrival="135.00" arrivalLane="29[0]_0" arrivalPos="129.99" arrivalSpeed="13.11" duration="84.00" routeLength="818.26" waitingTime="7.00" waitingCount="1" stopTime="0.00" timeLoss="21.61" rerouteNo="0" devices="tripinfo_Pertini_102_24" vType="passenger2b" speedFactor="0.98" vaporized=""/>
    <tripinfo id="Prati_Capraia_100_17" depart="82.00" departLane="3[0]_1" departPos="0.00" departSpeed="0.00" departDelay="0.00" arrival="135.00" arrivalLane="3[1]b_0" arrivalPos="238.77" arrivalSpeed="12.30" duration="53.00" routeLength="624.48" waitingTime="0.00" waitingCount="0" stopTime="0.00" timeLoss="4.63" rerouteNo="0" devices="tripinfo_Prati_Capraia_100_17" vType="passenger1" speedFactor="0.94" vaporized=""/>
    <tripinfo id="Sabotino_9_5" depart="45.00" departLane="41_0" departPos="0.00" departSpeed="0.00" departDelay="0.00" arrival="139.00" arrivalLane="2[1][1][1]b_0" arrivalPos="324.74" arrivalSpeed="12.24" duration="94.00" routeLength="1123.23" waitingTime="0.00" waitingCount="0" stopTime="0.00" timeLoss="7.45" rerouteNo="0" devices="tripinfo_Sabotino_9_5" vType="passenger1" speedFactor="0.94" vaporized=""/>
    <tripinfo id="Sabotino_9_6" depart="54.00" departLane="41_0" departPos="0.00" departSpeed="0.00" departDelay="0.00" arrival="140.00" arrivalLane="2[1][1][1]b_1" arrivalPos="324.74" arrivalSpeed="14.32" duration="86.00" routeLength="1123.23" waitingTime="0.00" waitingCount="0" stopTime="0.00" timeLoss="7.19" rerouteNo="0" devices="tripinfo_Sabotino_9_6" vType="passenger3" speedFactor="1.04" vaporized=""/>
    <tripinfo id="Montefiorino_60_7" depart="28.00" departLane="43_0" departPos="0.00" departSpeed="0.00" departDelay="0.00" arrival="141.00" arrivalLane="40[1]_0" arrivalPos="496.68" arrivalSpeed="11.83" duration="113.00" routeLength="1021.91" waitingTime="21.00" waitingCount="1" stopTime="0.00" timeLoss="31.00" rerouteNo="0" devices="tripinfo_Montefiorino_60_7" vType="passenger1" speedFactor="0.91" vaporized=""/>
    <tripinfo id="Borgo_20_3" depart="18.00" departLane="6_1" departPos="0.00" departSpeed="0.00" departDelay="0.00" arrival="145.00" arrivalLane="4[1][1][1]_1" arrivalPos="170.54" arrivalSpeed="12.66" duration="127.00" routeLength="551.60" waitingTime="75.00" waitingCount="1" stopTime="0.00" timeLoss="85.91" rerouteNo="0" devices="tripinfo_Borgo_20_3" vType="passenger1" speedFactor="1.00" vaporized=""/>
    <tripinfo id="Borgo_20_4" depart="24.00" departLane="6_1" departPos="0.00" departSpeed="0.00" departDelay="0.00" arrival="149.00" arrivalLane="4[1][1][1]_1" arrivalPos="170.54" arrivalSpeed="12.25" duration="125.00" routeLength="551.60" waitingTime="68.00" waitingCount="1" stopTime="0.00" timeLoss="79.07" rerouteNo="0" devices="tripinfo_Borgo_20_4" vType="passenger2b" speedFactor="0.90" vaporized=""/>
    <tripinfo id="Borgo_20_6" depart="36.00" departLane="6_1" departPos="0.00" departSpeed="0.00" departDelay="0.00" arrival="150.00" arrivalLane="4[1][1][1]_1" arrivalPos="170.54" arrivalSpeed="12.09" duration="114.00" routeLength="551.60" waitingTime="62.00" waitingCount="1" stopTime="0.00" timeLoss="79.47" rerouteNo="0" devices="tripinfo_Borgo_20_6" vType="passenger4" speedFactor="1.18" vaporized=""/>
    <tripinfo id="Nigrisoli_50_6" depart="37.00" departLane="65_0" departPos="0.00" departSpeed="0.00" departDelay="0.00" arrival="152.00" arrivalLane="35[1][1][1][1]_0" arrivalPos="257.67" arrivalSpeed="13.61" duration="115.00" routeLength="1161.06" waitingTime="15.00" waitingCount="1" stopTime="0.00" timeLoss="30.34" rerouteNo="0" devices="tripinfo_Nigrisoli_50_6" vType="ignoring1" speedFactor="1.00" vaporized=""/>
    <tripinfo id="Borgo_20_7" depart="42.00" departLane="6_1" departPos="0.00" departSpeed="0.00" departDelay="0.00" arrival="152.00" arrivalLane="4[1][1][1]_1" arrivalPos="170.54" arrivalSpeed="13.42" duration="110.00" routeLength="551.60" waitingTime="55.00" waitingCount="1" stopTime="0.00" timeLoss="69.33" rerouteNo="0" devices="tripinfo_Borgo_20_7" vType="passenger1" speedFactor="1.01" vaporized=""/>
    <tripinfo id="Borgo_20_9" depart="54.00" departLane="6_1" departPos="0.00" departSpeed="0.00" departDelay="0.00" arrival="153.00" arrivalLane="4[1][1][1]_1" arrivalPos="170.54" arrivalSpeed="13.89" duration="99.00" routeLength="551.60" waitingTime="45.00" waitingCount="1" stopTime="0.00" timeLoss="59.09" rerouteNo="0" devices="tripinfo_Borgo_20_9" vType="passenger4" speedFactor="1.01" vaporized=""/>
    <tripinfo id="Borgo_20_13" depart="79.00" departLane="6_1" departPos="0.00" departSpeed="0.00" departDelay="0.00" arrival="156.00" arrivalLane="4[1][1][1]_1" arrivalPos="170.54" arrivalSpeed="12.92" duration="77.00" routeLength="551.60" waitingTime="20.00" waitingCount="1" stopTime="0.00" timeLoss="34.74" rerouteNo="0" devices="tripinfo_Borgo_20_13" vType="passenger2a" speedFactor="0.96" vaporized=""/>
    <tripinfo id="Borgo_20_16" depart="97.00" departLane="6_1" departPos="0.00" departSpeed="0.00" departDelay="0.00" arrival="157.00" arrivalLane="4[1][1][1]_1" arrivalPos="170.54" arrivalSpeed="14.82" duration="60.00" routeLength="551.60" waitingTime="9.00" waitingCount="1" stopTime="0.00" timeLoss="23.74" rerouteNo="0" devices="tripinfo_Borgo_20_16" vType="passenger2b" speedFactor="1.11" vaporized=""/>
    <tripinfo id="Borgo_100_0" depart="0.00" departLane="6_0" departPos="0.00" departSpeed="0.00" departDelay="0.00" arrival="163.00" arrivalLane="3[1]b_0" arrivalPos="238.77" arrivalSpeed="12.75" duration="163.00" routeLength="797.07" waitingTime="90.00" waitingCount="1" stopTime="0.00" timeLoss="103.24" rerouteNo="0" devices="tripinfo_Borgo_100_0" vType="passenger4" speedFactor="0.98" vaporized=""/>
    <tripinfo id="Borgo_100_2" depart="12.00" departLane="6_0" departPos="0.00" departSpeed="0.00" departDelay="0.00" arrival="163.00" arrivalLane="3[1]b_1" arrivalPos="238.77" arrivalSpeed="13.52" duration="151.00" routeLength="797.07" waitingTime="83.00" waitingCount="1" stopTime="0.00" timeLoss="96.07" rerouteNo="0" devices="tripinfo_Borgo_100_2" vType="passenger2a" speedFactor="1.07" vaporized=""/>
    <tripinfo id="Borgo_20_17" depart="103.00" departLane="6_1" departPos="0.00" departSpeed="0.00" departDelay="0.00" arrival="164.00" arrivalLane="4[1][1][1]_1" arrivalPos="170.54" arrivalSpeed="11.46" duration="61.00" routeLength="551.60" waitingTime="1.00" waitingCount="1" stopTime="0.00" timeLoss="14.24" rerouteNo="0" devices="tripinfo_Borgo_20_17" vType="passenger2a" speedFactor="0.87" vaporized=""/>
    <tripinfo id="Montefiorino_90_1" depart="4.00" departLane="43_0" departPos="0.00" departSpeed="0.00" departDelay="0.00" arrival="165.00" arrivalLane="2[1][1][1]b_0" arrivalPos="324.74" arrivalSpeed="15.09" duration="161.00" routeLength="1198.14" waitingTime="67.00" waitingCount="1" stopTime="0.00" timeLoss="80.81" rerouteNo="0" devices="tripinfo_Montefiorino_90_1" vType="passenger1" speedFactor="1.10" vaporized=""/>
    <tripinfo id="Borgo_100_11" depart="66.00" departLane="6_0" departPos="0.00" departSpeed="0.00" departDelay="0.00" arrival="165.00" arrivalLane="3[1]b_1" arrivalPos="238.77" arrivalSpeed="16.04" duration="99.00" routeLength="797.07" waitingTime="32.00" waitingCount="1" stopTime="0.00" timeLoss="48.31" rerouteNo="0" devices="tripinfo_Borgo_100_11" vType="passenger1" speedFactor="1.17" vaporized=""/>
    <tripinfo id="Borgo_100_8" depart="48.00" departLane="6_0" departPos="0.00" departSpeed="0.00" departDelay="0.00" arrival="166.00" arrivalLane="3[1]b_0" arrivalPos="238.77" arrivalSpeed="12.87" duration="118.00" routeLength="797.07" waitingTime="45.00" waitingCount="1" stopTime="0.00" timeLoss="59.71" rerouteNo="0" devices="tripinfo_Borgo_100_8" vType="passenger4" speedFactor="1.01" vaporized=""/>
    <tripinfo id="Pertini_22_3" depart="6.00" departLane="13[0]_0" departPos="0.00" departSpeed="0.00" departDelay="0.00" arrival="169.00" arrivalLane="4[1][1][1]_0" arrivalPos="170.54" arrivalSpeed="12.99" duration="163.00" routeLength="1420.80" waitingTime="38.00" waitingCount="1" stopTime="0.00" timeLoss="55.62" rerouteNo="0" devices="tripinfo_Pertini_22_3" vType="passenger4" speedFactor="0.98" vaporized=""/>
    <tripinfo id="Gandhi_70_32" depart="50.00" departLane="1[0]_0" departPos="0.00" departSpeed="0.00" departDelay="0.00" arrival="169.00" arrivalLane="44_0" arrivalPos="122.23" arrivalSpeed="11.55" duration="119.00" routeLength="1079.17" waitingTime="12.00" waitingCount="1" stopTime="0.00" timeLoss="32.64" rerouteNo="0" devices="tripinfo_Gandhi_70_32" vType="passenger3" speedFactor="0.91" vaporized=""/>
    <tripinfo id="Borgo_100_12" depart="72.00" departLane="6_0" departPos="0.00" departSpeed="0.00" departDelay="0.00" arrival="169.00" arrivalLane="3[1]b_0" arrivalPos="238.77" arrivalSpeed="13.72" duration="97.00" routeLength="797.07" waitingTime="26.00" waitingCount="1" stopTime="0.00" timeLoss="40.61" rerouteNo="0" devices="tripinfo_Borgo_100_12" vType="passenger5" speedFactor="1.04" vaporized=""/>
    <tripinfo id="Saffi_20_5" depart="14.00" departLane="12_0" departPos="0.00" departSpeed="0.00" departDelay="0.00" arrival="171.00" arrivalLane="4[1][1][1]_0" arrivalPos="170.54" arrivalSpeed="15.16" duration="157.00" routeLength="1784.64" waitingTime="14.00" waitingCount="3" stopTime="0.00" timeLoss="45.88" rerouteNo="0" devices="tripinfo_Saffi_20_5" vType="passenger2a" speedFactor="1.17" vaporized=""/>